DF-ISE text

Info {
  version   = 1.0
  type      = xyplot
  datasets  = [
    "time"
    "Cathode OuterVoltage" "Cathode InnerVoltage" "Cathode QuasiFermiPotential" "Cathode DisplacementCurrent" "Cathode eCurrent"
    "Cathode hCurrent" "Cathode TotalCurrent" "Cathode Charge" "Anode OuterVoltage" "Anode InnerVoltage"
    "Anode QuasiFermiPotential" "Anode DisplacementCurrent" "Anode eCurrent" "Anode hCurrent" "Anode TotalCurrent"
    "Anode Charge" ]
  functions = [
    Time
    OuterVoltage InnerVoltage QuasiFermiPotential DisplacementCurrent eCurrent
    hCurrent TotalCurrent Charge OuterVoltage InnerVoltage
    QuasiFermiPotential DisplacementCurrent eCurrent hCurrent TotalCurrent
    Charge ]
}

Data {
      0.00000000000000E+00
      0.00000000000000E+00   0.00000000000000E+00   0.00000000000000E+00   0.00000000000000E+00  -3.90448828133278E-35
      3.90448828133278E-35   0.00000000000000E+00   8.59509698878497E-48   0.00000000000000E+00   0.00000000000000E+00
      0.00000000000000E+00   0.00000000000000E+00  -4.15694900190912E-35   4.15694900190912E-35   0.00000000000000E+00
     -4.29754849439248E-48
      0.00000000000000E+00
      0.00000000000000E+00   0.00000000000000E+00   0.00000000000000E+00   0.00000000000000E+00  -4.52546021500844E-35
      4.52546021500844E-35   0.00000000000000E+00   8.59509698878497E-48   0.00000000000000E+00   0.00000000000000E+00
      0.00000000000000E+00   0.00000000000000E+00  -4.81864040664547E-35   4.81864040664547E-35   0.00000000000000E+00
     -4.29754849439248E-48
      0.00000000000000E+00
      0.00000000000000E+00   0.00000000000000E+00   0.00000000000000E+00   0.00000000000000E+00  -4.52546021500844E-35
      4.52546021500844E-35   0.00000000000000E+00   8.59509698878497E-48   0.00000000000000E+00   0.00000000000000E+00
      0.00000000000000E+00   0.00000000000000E+00  -4.81864040664547E-35   4.81864040664547E-35   0.00000000000000E+00
     -4.29754849439248E-48
      0.00000000000000E+00
      0.00000000000000E+00   0.00000000000000E+00   0.00000000000000E+00   0.00000000000000E+00  -4.53958478153263E-35
      4.53958478153263E-35   0.00000000000000E+00   8.59509698878497E-48   0.00000000000000E+00   0.00000000000000E+00
      0.00000000000000E+00   0.00000000000000E+00  -4.83276497316965E-35   4.83276497316965E-35   0.00000000000000E+00
     -4.29754849439248E-48
      0.00000000000000E+00
      0.00000000000000E+00   0.00000000000000E+00   0.00000000000000E+00   0.00000000000000E+00  -4.53958478153263E-35
      4.53958478153263E-35   0.00000000000000E+00   8.59509698878497E-48   0.00000000000000E+00   0.00000000000000E+00
      0.00000000000000E+00   0.00000000000000E+00  -4.83276497316965E-35   4.83276497316965E-35   0.00000000000000E+00
     -4.29754849439248E-48
      1.00000000000000E-03
      0.00000000000000E+00   0.00000000000000E+00   0.00000000000000E+00   0.00000000000000E+00   1.88454839306163E-07
      1.51369148032875E-19   1.88454839306315E-07   1.03594139999994E-19  -1.00000000000000E-02  -1.00000000000000E-02
      0.00000000000000E+00   0.00000000000000E+00  -1.88454839306163E-07  -1.51369148032875E-19  -1.88454839306315E-07
     -1.03594139999993E-19
      2.46666666666667E-03
      0.00000000000000E+00   0.00000000000000E+00   0.00000000000000E+00   0.00000000000000E+00   4.64478066358630E-07
      3.73315456645231E-19   4.64478066359003E-07   2.55532212841152E-19  -2.46666666666667E-02  -2.46666666666667E-02
      0.00000000000000E+00   0.00000000000000E+00  -4.64478066358630E-07  -3.73315456632267E-19  -4.64478066359003E-07
     -2.55532212841152E-19
      4.61777777777778E-03
      0.00000000000000E+00   0.00000000000000E+00   0.00000000000000E+00   0.00000000000000E+00   8.68417580409441E-07
      6.98675511117398E-19   8.68417580410140E-07   4.78374717600006E-19  -4.61777777777778E-02  -4.61777777777778E-02
      0.00000000000000E+00   0.00000000000000E+00  -8.68417580409441E-07  -6.98675511117398E-19  -8.68417580410140E-07
     -4.78374717600007E-19
      6.91229629629630E-03
      0.00000000000000E+00   0.00000000000000E+00   0.00000000000000E+00   0.00000000000000E+00   1.29804382601037E-06
      1.04548814337119E-18   1.29804382601141E-06   7.16073390267021E-19  -6.91229629629630E-02  -6.91229629629630E-02
      0.00000000000000E+00   0.00000000000000E+00  -1.29804382601037E-06  -1.04548814337089E-18  -1.29804382601141E-06
     -7.16073390267020E-19
      9.20681481481482E-03
      0.00000000000000E+00   0.00000000000000E+00   0.00000000000000E+00   0.00000000000000E+00   1.72633600195431E-06
      1.39203337632844E-18   1.72633600195571E-06   9.53772062893329E-19  -9.20681481481482E-02  -9.20681481481482E-02
      0.00000000000000E+00   0.00000000000000E+00  -1.72633600195431E-06  -1.39203337632832E-18  -1.72633600195571E-06
     -9.53772062893331E-19
      1.15013333333333E-02
      0.00000000000000E+00   0.00000000000000E+00   0.00000000000000E+00   0.00000000000000E+00   2.15325782809914E-06
      1.73829452818980E-18   2.15325782810088E-06   1.19147073552592E-18  -1.15013333333333E-01  -1.15013333333333E-01
      0.00000000000000E+00   0.00000000000000E+00  -2.15325782809914E-06  -1.73829452818976E-18  -2.15325782810088E-06
     -1.19147073552593E-18
      1.37958518518519E-02
      0.00000000000000E+00   0.00000000000000E+00   0.00000000000000E+00   0.00000000000000E+00   2.57878232786578E-06
      2.08425810269786E-18   2.57878232786787E-06   1.42916940816248E-18  -1.37958518518519E-01  -1.37958518518519E-01
      0.00000000000000E+00   0.00000000000000E+00  -2.57878232786578E-06  -2.08425810269785E-18  -2.57878232786787E-06
     -1.42916940816248E-18
      1.60903703703704E-02
      0.00000000000000E+00   0.00000000000000E+00   0.00000000000000E+00   0.00000000000000E+00   3.00288855310375E-06
      2.42991271002037E-18   3.00288855310618E-06   1.66686808080098E-18  -1.60903703703704E-01  -1.60903703703704E-01
      0.00000000000000E+00   0.00000000000000E+00  -3.00288855310375E-06  -2.42991271002036E-18  -3.00288855310618E-06
     -1.66686808080098E-18
      1.83848888888889E-02
      0.00000000000000E+00   0.00000000000000E+00   0.00000000000000E+00   0.00000000000000E+00   3.42555981533129E-06
      2.77524847284676E-18   3.42555981533407E-06   1.90456675344036E-18  -1.83848888888889E-01  -1.83848888888889E-01
      0.00000000000000E+00   0.00000000000000E+00  -3.42555981533129E-06  -2.77524847284676E-18  -3.42555981533407E-06
     -1.90456675344036E-18
      2.06794074074074E-02
      0.00000000000000E+00   0.00000000000000E+00   0.00000000000000E+00   0.00000000000000E+00   3.84678261233355E-06
      3.12025666086565E-18   3.84678261233667E-06   2.14226542608013E-18  -2.06794074074074E-01  -2.06794074074074E-01
      0.00000000000000E+00   0.00000000000000E+00  -3.84678261233355E-06  -3.12025666086565E-18  -3.84678261233667E-06
     -2.14226542608013E-18
      2.29739259259259E-02
      0.00000000000000E+00   0.00000000000000E+00   0.00000000000000E+00   0.00000000000000E+00   4.26654592359234E-06
      3.46492944820195E-18   4.26654592359580E-06   2.37996409872003E-18  -2.29739259259259E-01  -2.29739259259259E-01
      0.00000000000000E+00   0.00000000000000E+00  -4.26654592359234E-06  -3.46492944820195E-18  -4.26654592359580E-06
     -2.37996409872003E-18
      2.52684444444444E-02
      0.00000000000000E+00   0.00000000000000E+00   0.00000000000000E+00   0.00000000000000E+00   4.68484072077758E-06
      3.80925974341700E-18   4.68484072078139E-06   2.61766277136001E-18  -2.52684444444444E-01  -2.52684444444444E-01
      0.00000000000000E+00   0.00000000000000E+00  -4.68484072077758E-06  -3.80925974341700E-18  -4.68484072078139E-06
     -2.61766277136001E-18
      2.75629629629630E-02
      0.00000000000000E+00   0.00000000000000E+00   0.00000000000000E+00   0.00000000000000E+00   5.10165961263607E-06
      4.15324106530700E-18   5.10165961264022E-06   2.85536144400000E-18  -2.75629629629630E-01  -2.75629629629630E-01
      0.00000000000000E+00   0.00000000000000E+00  -5.10165961263607E-06  -4.15324106530700E-18  -5.10165961264022E-06
     -2.85536144400001E-18
      2.98574814814815E-02
      0.00000000000000E+00   0.00000000000000E+00   0.00000000000000E+00   0.00000000000000E+00   5.51699657845667E-06
      4.49686744913863E-18   5.51699657846116E-06   3.09306011663999E-18  -2.98574814814815E-01  -2.98574814814815E-01
      0.00000000000000E+00   0.00000000000000E+00  -5.51699657845667E-06  -4.49686744913863E-18  -5.51699657846116E-06
     -3.09306011663999E-18
      3.21520000000000E-02
      0.00000000000000E+00   0.00000000000000E+00   0.00000000000000E+00   0.00000000000000E+00   5.93084676243055E-06
      4.84013337395843E-18   5.93084676243539E-06   3.33075878928000E-18  -3.21520000000000E-01  -3.21520000000000E-01
      0.00000000000000E+00   0.00000000000000E+00  -5.93084676243055E-06  -4.84013337395843E-18  -5.93084676243539E-06
     -3.33075878928000E-18
      3.44465185185185E-02
      0.00000000000000E+00   0.00000000000000E+00   0.00000000000000E+00   0.00000000000000E+00   6.34320631134081E-06
      5.18303370498842E-18   6.34320631134599E-06   3.56845746191999E-18  -3.44465185185185E-01  -3.44465185185185E-01
      0.00000000000000E+00   0.00000000000000E+00  -6.34320631134081E-06  -5.18303370498842E-18  -6.34320631134599E-06
     -3.56845746192000E-18
      3.67410370370371E-02
      0.00000000000000E+00   0.00000000000000E+00   0.00000000000000E+00   0.00000000000000E+00   6.75407224682945E-06
      5.52556364950662E-18   6.75407224683498E-06   3.80615613621244E-18  -3.67410370370370E-01  -3.67410370370370E-01
      0.00000000000000E+00   0.00000000000000E+00  -6.75407224682945E-06  -5.52556364950220E-18  -6.75407224683498E-06
     -3.80615613621244E-18
      3.90355555555556E-02
      0.00000000000000E+00   0.00000000000000E+00   0.00000000000000E+00   0.00000000000000E+00   7.16344234557884E-06
      5.86771870783378E-18   7.16344234558471E-06   4.04385480791141E-18  -3.90355555555556E-01  -3.90355555555556E-01
      0.00000000000000E+00   0.00000000000000E+00  -7.16344234557884E-06  -5.86771870783198E-18  -7.16344234558471E-06
     -4.04385480791142E-18
      4.13300740740741E-02
      0.00000000000000E+00   0.00000000000000E+00   0.00000000000000E+00   0.00000000000000E+00   7.57131507362073E-06
      6.20949466071846E-18   7.57131507362694E-06   4.28155348011665E-18  -4.13300740740741E-01  -4.13300740740741E-01
      0.00000000000000E+00   0.00000000000000E+00  -7.57131507362073E-06  -6.20949466071780E-18  -7.57131507362694E-06
     -4.28155348011665E-18
      4.36245925925926E-02
      0.00000000000000E+00   0.00000000000000E+00   0.00000000000000E+00   0.00000000000000E+00   7.97768949349407E-06
      6.55088752724362E-18   7.97768949350062E-06   4.51925215257303E-18  -4.36245925925926E-01  -4.36245925925926E-01
      0.00000000000000E+00   0.00000000000000E+00  -7.97768949349407E-06  -6.55088752724341E-18  -7.97768949350062E-06
     -4.51925215257304E-18
      4.59191111111111E-02
      0.00000000000000E+00   0.00000000000000E+00   0.00000000000000E+00   0.00000000000000E+00   8.38256520716292E-06
      6.89189354716546E-18   8.38256520716981E-06   4.75695082514498E-18  -4.59191111111111E-01  -4.59191111111111E-01
      0.00000000000000E+00   0.00000000000000E+00  -8.38256520716292E-06  -6.89189354716541E-18  -8.38256520716981E-06
     -4.75695082514498E-18
      4.82136296296297E-02
      0.00000000000000E+00   0.00000000000000E+00   0.00000000000000E+00   0.00000000000000E+00   8.78594230186938E-06
      7.23250916138435E-18   8.78594230187662E-06   4.99464949776453E-18  -4.82136296296297E-01  -4.82136296296297E-01
      0.00000000000000E+00   0.00000000000000E+00  -8.78594230186938E-06  -7.23250916138434E-18  -8.78594230187662E-06
     -4.99464949776454E-18
      5.05081481481482E-02
      0.00000000000000E+00   0.00000000000000E+00   0.00000000000000E+00   0.00000000000000E+00   9.18782130337446E-06
      7.57273099506824E-18   9.18782130338203E-06   5.23234817040035E-18  -5.05081481481482E-01  -5.05081481481482E-01
      0.00000000000000E+00   0.00000000000000E+00  -9.18782130337446E-06  -7.57273099506824E-18  -9.18782130338203E-06
     -5.23234817040035E-18
      5.28026666666667E-02
      0.00000000000000E+00   0.00000000000000E+00   0.00000000000000E+00   0.00000000000000E+00   9.58820313526579E-06
      7.91255584295477E-18   9.58820313527370E-06   5.47004684304000E-18  -5.28026666666667E-01  -5.28026666666667E-01
      0.00000000000000E+00   0.00000000000000E+00  -9.58820313526579E-06  -7.91255584295477E-18  -9.58820313527370E-06
     -5.47004684304001E-18
      5.50971851851852E-02
      0.00000000000000E+00   0.00000000000000E+00   0.00000000000000E+00   0.00000000000000E+00   9.98708908329775E-06
      8.25198065646061E-18   9.98708908330600E-06   5.70774551568003E-18  -5.50971851851852E-01  -5.50971851851852E-01
      0.00000000000000E+00   0.00000000000000E+00  -9.98708908329775E-06  -8.25198065646061E-18  -9.98708908330600E-06
     -5.70774551568005E-18
      5.73917037037038E-02
      0.00000000000000E+00   0.00000000000000E+00   0.00000000000000E+00   0.00000000000000E+00   1.03844807639448E-05
      8.59100253230366E-18   1.03844807639533E-05   5.94544418832059E-18  -5.73917037037037E-01  -5.73917037037037E-01
      0.00000000000000E+00   0.00000000000000E+00  -1.03844807639448E-05  -8.59100253230366E-18  -1.03844807639533E-05
     -5.94544418832060E-18
      5.96862222222223E-02
      0.00000000000000E+00   0.00000000000000E+00   0.00000000000000E+00   0.00000000000000E+00   1.07803800965120E-05
      8.92961870240310E-18   1.07803800965209E-05   6.18314286096275E-18  -5.96862222222223E-01  -5.96862222222223E-01
      0.00000000000000E+00   0.00000000000000E+00  -1.07803800965120E-05  -8.92961870240310E-18  -1.07803800965209E-05
     -6.18314286096275E-18
      6.19807407407408E-02
      0.00000000000000E+00   0.00000000000000E+00   0.00000000000000E+00   0.00000000000000E+00   1.11747892782650E-05
      9.26782652485927E-18   1.11747892782743E-05   6.42084153360226E-18  -6.19807407407408E-01  -6.19807407407408E-01
      0.00000000000000E+00   0.00000000000000E+00  -1.11747892782650E-05  -9.26782652485926E-18  -1.11747892782743E-05
     -6.42084153360227E-18
      6.42752592592593E-02
      0.00000000000000E+00   0.00000000000000E+00   0.00000000000000E+00   0.00000000000000E+00   1.15677107621811E-05
      9.60562347588958E-18   1.15677107621907E-05   6.65854020624125E-18  -6.42752592592593E-01  -6.42752592592593E-01
      0.00000000000000E+00   0.00000000000000E+00  -1.15677107621811E-05  -9.60562347588958E-18  -1.15677107621907E-05
     -6.65854020624126E-18
      6.65697777777778E-02
      0.00000000000000E+00   0.00000000000000E+00   0.00000000000000E+00   0.00000000000000E+00   1.19591472369044E-05
      9.94300714253946E-18   1.19591472369143E-05   6.89623887888067E-18  -6.65697777777778E-01  -6.65697777777778E-01
      0.00000000000000E+00   0.00000000000000E+00  -1.19591472369044E-05  -9.94300714253946E-18  -1.19591472369143E-05
     -6.89623887888066E-18
      6.88642962962963E-02
      0.00000000000000E+00   0.00000000000000E+00   0.00000000000000E+00   0.00000000000000E+00   1.23491016086537E-05
      1.02799752161009E-17   1.23491016086639E-05   7.13393755152033E-18  -6.88642962962963E-01  -6.88642962962963E-01
      0.00000000000000E+00   0.00000000000000E+00  -1.23491016086537E-05  -1.02799752161009E-17  -1.23491016086639E-05
     -7.13393755152033E-18
      7.11588148148149E-02
      0.00000000000000E+00   0.00000000000000E+00   0.00000000000000E+00   0.00000000000000E+00   1.27375769848245E-05
      1.06165254861398E-17   1.27375769848352E-05   7.37163622416017E-18  -7.11588148148149E-01  -7.11588148148149E-01
      0.00000000000000E+00   0.00000000000000E+00  -1.27375769848245E-05  -1.06165254861398E-17  -1.27375769848352E-05
     -7.37163622416016E-18
      7.34533333333334E-02
      0.00000000000000E+00   0.00000000000000E+00   0.00000000000000E+00   0.00000000000000E+00   1.31245766590729E-05
      1.09526558350541E-17   1.31245766590839E-05   7.60933489680008E-18  -7.34533333333334E-01  -7.34533333333334E-01
      0.00000000000000E+00   0.00000000000000E+00  -1.31245766590729E-05  -1.09526558350541E-17  -1.31245766590839E-05
     -7.60933489680010E-18
      7.57478518518519E-02
      0.00000000000000E+00   0.00000000000000E+00   0.00000000000000E+00   0.00000000000000E+00   1.35101040977058E-05
      1.12883642331013E-17   1.35101040977171E-05   7.84703356944005E-18  -7.57478518518519E-01  -7.57478518518519E-01
      0.00000000000000E+00   0.00000000000000E+00  -1.35101040977058E-05  -1.12883642331013E-17  -1.35101040977171E-05
     -7.84703356944005E-18
      7.80423703703704E-02
      0.00000000000000E+00   0.00000000000000E+00   0.00000000000000E+00   0.00000000000000E+00   1.38941629272278E-05
      1.16236487338395E-17   1.38941629272395E-05   8.08473224208002E-18  -7.80423703703704E-01  -7.80423703703704E-01
      0.00000000000000E+00   0.00000000000000E+00  -1.38941629272278E-05  -1.16236487338395E-17  -1.38941629272395E-05
     -8.08473224208003E-18
      8.03368888888889E-02
      0.00000000000000E+00   0.00000000000000E+00   0.00000000000000E+00   0.00000000000000E+00   1.42767569229159E-05
      1.19585074699379E-17   1.42767569229279E-05   8.32243091472001E-18  -8.03368888888889E-01  -8.03368888888889E-01
      0.00000000000000E+00   0.00000000000000E+00  -1.42767569229159E-05  -1.19585074699379E-17  -1.42767569229279E-05
     -8.32243091472001E-18
      8.26314074074074E-02
      0.00000000000000E+00   0.00000000000000E+00   0.00000000000000E+00   0.00000000000000E+00   1.46578899983089E-05
      1.22929386493141E-17   1.46578899983212E-05   8.56012958736001E-18  -8.26314074074074E-01  -8.26314074074074E-01
      0.00000000000000E+00   0.00000000000000E+00  -1.46578899983089E-05  -1.22929386493141E-17  -1.46578899983212E-05
     -8.56012958736002E-18
      8.49259259259259E-02
      0.00000000000000E+00   0.00000000000000E+00   0.00000000000000E+00   0.00000000000000E+00   1.50375661955177E-05
      1.26269405515660E-17   1.50375661955303E-05   8.79782826000001E-18  -8.49259259259259E-01  -8.49259259259259E-01
      0.00000000000000E+00   0.00000000000000E+00  -1.50375661955177E-05  -1.26269405515660E-17  -1.50375661955303E-05
     -8.79782826000002E-18
      8.72204444444445E-02
      0.00000000000000E+00   0.00000000000000E+00   0.00000000000000E+00   0.00000000000000E+00   1.54157896762714E-05
      1.29605115246655E-17   1.54157896762843E-05   9.03552693264000E-18  -8.72204444444445E-01  -8.72204444444445E-01
      0.00000000000000E+00   0.00000000000000E+00  -1.54157896762714E-05  -1.29605115246655E-17  -1.54157896762843E-05
     -9.03552693264001E-18
      8.95149629629630E-02
      0.00000000000000E+00   0.00000000000000E+00   0.00000000000000E+00   0.00000000000000E+00   1.57925647236290E-05
      1.32936499907454E-17   1.57925647236423E-05   9.27322561160218E-18  -8.95149629629630E-01  -8.95149629629630E-01
      0.00000000000000E+00   0.00000000000000E+00  -1.57925647236290E-05  -1.32936499907381E-17  -1.57925647236423E-05
     -9.27322561160217E-18
      9.07387061728395E-02
      0.00000000000000E+00   0.00000000000000E+00   0.00000000000000E+00   0.00000000000000E+00   1.59929206550457E-05
      1.34711464460695E-17   1.59929206550592E-05   9.39999823069213E-18  -9.07387061728395E-01  -9.07387061728395E-01
      0.00000000000000E+00   0.00000000000000E+00  -1.59929206550457E-05  -1.34711464460695E-17  -1.59929206550592E-05
     -9.39999823069211E-18
      9.25335295473251E-02
      0.00000000000000E+00   0.00000000000000E+00   0.00000000000000E+00   0.00000000000000E+00   1.62860344330352E-05
      1.37312507981907E-17   1.62860344330489E-05   9.58593141461986E-18  -9.25335295473251E-01  -9.25335295473251E-01
      0.00000000000000E+00   0.00000000000000E+00  -1.62860344330352E-05  -1.37312507981907E-17  -1.62860344330489E-05
     -9.58593141461986E-18
      9.37300784636488E-02
      0.00000000000000E+00   0.00000000000000E+00   0.00000000000000E+00   0.00000000000000E+00   1.64809546098665E-05
      1.39045055471314E-17   1.64809546098805E-05   9.70988687057612E-18  -9.37300784636488E-01  -9.37300784636488E-01
      0.00000000000000E+00   0.00000000000000E+00  -1.64809546098665E-05  -1.39045055471314E-17  -1.64809546098805E-05
     -9.70988687057613E-18
      9.54850168742570E-02
      0.00000000000000E+00   0.00000000000000E+00   0.00000000000000E+00   0.00000000000000E+00   1.67661314361879E-05
      1.41583976432706E-17   1.67661314362021E-05   9.89168820597415E-18  -9.54850168742570E-01  -9.54850168742570E-01
      0.00000000000000E+00   0.00000000000000E+00  -1.67661314361879E-05  -1.41583976432706E-17  -1.67661314362021E-05
     -9.89168820597416E-18
      9.78249347550678E-02
      0.00000000000000E+00   0.00000000000000E+00   0.00000000000000E+00   0.00000000000000E+00   1.71450642679255E-05
      1.44965220111766E-17   1.71450642679400E-05   1.01340899865433E-17  -9.78249347550678E-01  -9.78249347550678E-01
      0.00000000000000E+00   0.00000000000000E+00  -1.71450642679255E-05  -1.44965220111766E-17  -1.71450642679400E-05
     -1.01340899865433E-17
      1.00164852635879E-01
      0.00000000000000E+00   0.00000000000000E+00   0.00000000000000E+00   0.00000000000000E+00   1.75225125983457E-05
      1.48341897544761E-17   1.75225125983606E-05   1.03764917672311E-17  -1.00164852635879E+00  -1.00164852635879E+00
      0.00000000000000E+00   0.00000000000000E+00  -1.75225125983457E-05  -1.48341897544759E-17  -1.75225125983606E-05
     -1.03764917672311E-17
      1.02504770516690E-01
      0.00000000000000E+00   0.00000000000000E+00   0.00000000000000E+00   0.00000000000000E+00   1.78984814866046E-05
      1.51713995289200E-17   1.78984814866198E-05   1.06188935477395E-17  -1.02504770516690E+00  -1.02504770516690E+00
      0.00000000000000E+00   0.00000000000000E+00  -1.78984814866046E-05  -1.51713995289198E-17  -1.78984814866198E-05
     -1.06188935477395E-17
      1.04844688397500E-01
      0.00000000000000E+00   0.00000000000000E+00   0.00000000000000E+00   0.00000000000000E+00   1.82729760672628E-05
      1.55081500443785E-17   1.82729760672784E-05   1.08612953281836E-17  -1.04844688397500E+00  -1.04844688397500E+00
      0.00000000000000E+00   0.00000000000000E+00  -1.82729760672628E-05  -1.55081500443784E-17  -1.82729760672784E-05
     -1.08612953281836E-17
      1.07184606278311E-01
      0.00000000000000E+00   0.00000000000000E+00   0.00000000000000E+00   0.00000000000000E+00   1.86460015442650E-05
      1.58444400622171E-17   1.86460015442809E-05   1.11036971086737E-17  -1.07184606278311E+00  -1.07184606278311E+00
      0.00000000000000E+00   0.00000000000000E+00  -1.86460015442650E-05  -1.58444400622171E-17  -1.86460015442809E-05
     -1.11036971086737E-17
      1.09524524159122E-01
      0.00000000000000E+00   0.00000000000000E+00   0.00000000000000E+00   0.00000000000000E+00   1.90175631857155E-05
      1.61802683931996E-17   1.90175631857317E-05   1.13460988891875E-17  -1.09524524159122E+00  -1.09524524159122E+00
      0.00000000000000E+00   0.00000000000000E+00  -1.90175631857155E-05  -1.61802683931996E-17  -1.90175631857317E-05
     -1.13460988891875E-17
      1.11864442039933E-01
      0.00000000000000E+00   0.00000000000000E+00   0.00000000000000E+00   0.00000000000000E+00   1.93876663193808E-05
      1.65156338958743E-17   1.93876663193974E-05   1.15885006697124E-17  -1.11864442039933E+00  -1.11864442039933E+00
      0.00000000000000E+00   0.00000000000000E+00  -1.93876663193808E-05  -1.65156338958743E-17  -1.93876663193974E-05
     -1.15885006697124E-17
      1.14204359920744E-01
      0.00000000000000E+00   0.00000000000000E+00   0.00000000000000E+00   0.00000000000000E+00   1.97563163282537E-05
      1.68505354748605E-17   1.97563163282705E-05   1.18309024502423E-17  -1.14204359920744E+00  -1.14204359920744E+00
      0.00000000000000E+00   0.00000000000000E+00  -1.97563163282537E-05  -1.68505354748605E-17  -1.97563163282705E-05
     -1.18309024502423E-17
      1.16544277801555E-01
      0.00000000000000E+00   0.00000000000000E+00   0.00000000000000E+00   0.00000000000000E+00   2.01235186463797E-05
      1.71849720792268E-17   2.01235186463969E-05   1.20733042307741E-17  -1.16544277801555E+00  -1.16544277801555E+00
      0.00000000000000E+00   0.00000000000000E+00  -2.01235186463797E-05  -1.71849720792268E-17  -2.01235186463969E-05
     -1.20733042307740E-17
      1.18884195682366E-01
      0.00000000000000E+00   0.00000000000000E+00   0.00000000000000E+00   0.00000000000000E+00   2.04892787549344E-05
      1.75189427009600E-17   2.04892787549519E-05   1.23157060113067E-17  -1.18884195682366E+00  -1.18884195682366E+00
      0.00000000000000E+00   0.00000000000000E+00  -2.04892787549344E-05  -1.75189427009600E-17  -2.04892787549519E-05
     -1.23157060113067E-17
      1.21224113563176E-01
      0.00000000000000E+00   0.00000000000000E+00   0.00000000000000E+00   0.00000000000000E+00   2.08536021785256E-05
      1.78524463735128E-17   2.08536021785434E-05   1.25581077918397E-17  -1.21224113563176E+00  -1.21224113563176E+00
      0.00000000000000E+00   0.00000000000000E+00  -2.08536021785256E-05  -1.78524463735128E-17  -2.08536021785434E-05
     -1.25581077918397E-17
      1.23564031443987E-01
      0.00000000000000E+00   0.00000000000000E+00   0.00000000000000E+00   0.00000000000000E+00   2.12164944817092E-05
      1.81854821704279E-17   2.12164944817273E-05   1.28005095723728E-17  -1.23564031443987E+00  -1.23564031443987E+00
      0.00000000000000E+00   0.00000000000000E+00  -2.12164944817092E-05  -1.81854821704279E-17  -2.12164944817273E-05
     -1.28005095723729E-17
      1.25903949324798E-01
      0.00000000000000E+00   0.00000000000000E+00   0.00000000000000E+00   0.00000000000000E+00   2.15779612657016E-05
      1.85180492040309E-17   2.15779612657201E-05   1.30429113529060E-17  -1.25903949324798E+00  -1.25903949324798E+00
      0.00000000000000E+00   0.00000000000000E+00  -2.15779612657016E-05  -1.85180492040309E-17  -2.15779612657201E-05
     -1.30429113529060E-17
      1.28243867205609E-01
      0.00000000000000E+00   0.00000000000000E+00   0.00000000000000E+00   0.00000000000000E+00   2.19380081652741E-05
      1.88501466241877E-17   2.19380081652929E-05   1.32853131334393E-17  -1.28243867205609E+00  -1.28243867205609E+00
      0.00000000000000E+00   0.00000000000000E+00  -2.19380081652741E-05  -1.88501466241877E-17  -2.19380081652929E-05
     -1.32853131334393E-17
      1.30583785086420E-01
      0.00000000000000E+00   0.00000000000000E+00   0.00000000000000E+00   0.00000000000000E+00   2.22966408458184E-05
      1.91817736171215E-17   2.22966408458376E-05   1.35277149139725E-17  -1.30583785086420E+00  -1.30583785086420E+00
      0.00000000000000E+00   0.00000000000000E+00  -2.22966408458184E-05  -1.91817736171215E-17  -2.22966408458376E-05
     -1.35277149139725E-17
      1.32923702967231E-01
      0.00000000000000E+00   0.00000000000000E+00   0.00000000000000E+00   0.00000000000000E+00   2.26538650131307E-05
      1.95129294159439E-17   2.26538650131502E-05   1.37701167030452E-17  -1.32923702967231E+00  -1.32923702967231E+00
      0.00000000000000E+00   0.00000000000000E+00  -2.26538650131307E-05  -1.95129294159368E-17  -2.26538650131502E-05
     -1.37701167030452E-17
      1.34171659170330E-01
      0.00000000000000E+00   0.00000000000000E+00   0.00000000000000E+00   0.00000000000000E+00   2.28438105927773E-05
      1.96893528949355E-17   2.28438105927970E-05   1.38993976441266E-17  -1.34171659170330E+00  -1.34171659170330E+00
      0.00000000000000E+00   0.00000000000000E+00  -2.28438105927773E-05  -1.96893528949355E-17  -2.28438105927970E-05
     -1.38993976441266E-17
      1.36001994934875E-01
      0.00000000000000E+00   0.00000000000000E+00   0.00000000000000E+00   0.00000000000000E+00   2.31216774958515E-05
      1.99478642878099E-17   2.31216774958714E-05   1.40890097035628E-17  -1.36001994934875E+00  -1.36001994934875E+00
      0.00000000000000E+00   0.00000000000000E+00  -2.31216774958515E-05  -1.99478642878099E-17  -2.31216774958714E-05
     -1.40890097035628E-17
      1.37222218777905E-01
      0.00000000000000E+00   0.00000000000000E+00   0.00000000000000E+00   0.00000000000000E+00   2.33064476419652E-05
      2.01200444909811E-17   2.33064476419853E-05   1.42154177431903E-17  -1.37222218777905E+00  -1.37222218777905E+00
      0.00000000000000E+00   0.00000000000000E+00  -2.33064476419652E-05  -2.01200444909811E-17  -2.33064476419853E-05
     -1.42154177431903E-17
      1.39011880414350E-01
      0.00000000000000E+00   0.00000000000000E+00   0.00000000000000E+00   0.00000000000000E+00   2.35767592261932E-05
      2.03723426438299E-17   2.35767592262136E-05   1.44008162051947E-17  -1.39011880414350E+00  -1.39011880414350E+00
      0.00000000000000E+00   0.00000000000000E+00  -2.35767592261932E-05  -2.03723426438279E-17  -2.35767592262136E-05
     -1.44008162051947E-17
      1.41636717481135E-01
      0.00000000000000E+00   0.00000000000000E+00   0.00000000000000E+00   0.00000000000000E+00   2.39717483822927E-05
      2.07418785525485E-17   2.39717483823134E-05   1.46727339399008E-17  -1.41636717481135E+00  -1.41636717481135E+00
      0.00000000000000E+00   0.00000000000000E+00  -2.39717483822927E-05  -2.07418785525485E-17  -2.39717483823134E-05
     -1.46727339399008E-17
      1.43036630583420E-01
      0.00000000000000E+00   0.00000000000000E+00   0.00000000000000E+00   0.00000000000000E+00   2.41816980142261E-05
      2.09387203166019E-17   2.41816980142470E-05   1.48177567339213E-17  -1.43036630583420E+00  -1.43036630583420E+00
      0.00000000000000E+00   0.00000000000000E+00  -2.41816980142261E-05  -2.09387203166018E-17  -2.41816980142470E-05
     -1.48177567339214E-17
      1.45089836466772E-01