DF-ISE text

Info {
  version   = 1.0
  type      = xyplot
  datasets  = [
    "time"
    "Source OuterVoltage" "Source InnerVoltage" "Source QuasiFermiPotential" "Source DisplacementCurrent" "Source eCurrent"
    "Source hCurrent" "Source TotalCurrent" "Source Charge" "Gate OuterVoltage" "Gate InnerVoltage"
    "Gate QuasiFermiPotential" "Gate DisplacementCurrent" "Gate eCurrent" "Gate hCurrent" "Gate TotalCurrent"
    "Gate Charge" "Drain OuterVoltage" "Drain InnerVoltage" "Drain QuasiFermiPotential" "Drain DisplacementCurrent"
    "Drain eCurrent" "Drain hCurrent" "Drain TotalCurrent" "Drain Charge" "Body OuterVoltage"
    "Body InnerVoltage" "Body QuasiFermiPotential" "Body DisplacementCurrent" "Body eCurrent" "Body hCurrent"
    "Body TotalCurrent" "Body Charge" ]
  functions = [
    Time
    OuterVoltage InnerVoltage QuasiFermiPotential DisplacementCurrent eCurrent
    hCurrent TotalCurrent Charge OuterVoltage InnerVoltage
    QuasiFermiPotential DisplacementCurrent eCurrent hCurrent TotalCurrent
    Charge OuterVoltage InnerVoltage QuasiFermiPotential DisplacementCurrent
    eCurrent hCurrent TotalCurrent Charge OuterVoltage
    InnerVoltage QuasiFermiPotential DisplacementCurrent eCurrent hCurrent
    TotalCurrent Charge ]
}

Data {
      0.00000000000000E+00
      0.00000000000000E+00   0.00000000000000E+00   0.00000000000000E+00   0.00000000000000E+00  -6.46919195264790E-17
     -8.16984465154709E-31  -6.46919195264798E-17   6.05834450323864E-15   0.00000000000000E+00   0.00000000000000E+00
      0.00000000000000E+00   0.00000000000000E+00   0.00000000000000E+00   0.00000000000000E+00   0.00000000000000E+00
      1.47261856883630E-15   0.00000000000000E+00   0.00000000000000E+00   0.00000000000000E+00   0.00000000000000E+00
     -1.61635695918577E-16  -9.79640430525453E-31  -1.61635695918578E-16   6.05898368371697E-15   0.00000000000000E+00
      0.00000000000000E+00   0.00000000000000E+00   0.00000000000000E+00   2.26327615445056E-16   1.28547263400937E-30
      2.26327615445058E-16  -1.35899467557919E-14
      0.00000000000000E+00
      0.00000000000000E+00   0.00000000000000E+00   0.00000000000000E+00   0.00000000000000E+00  -2.77773027661606E-16
     -7.86420070883317E-31  -2.77773027661607E-16   6.05834450323863E-15   0.00000000000000E+00   0.00000000000000E+00
      0.00000000000000E+00   0.00000000000000E+00   0.00000000000000E+00   0.00000000000000E+00   0.00000000000000E+00
      1.47261856883630E-15   0.00000000000000E+00   0.00000000000000E+00   0.00000000000000E+00   0.00000000000000E+00
     -1.54517343376049E-15  -9.06287280387971E-31  -1.54517343376049E-15   6.05898368371696E-15   0.00000000000000E+00
      0.00000000000000E+00   0.00000000000000E+00   0.00000000000000E+00   1.82294646142210E-15   1.16338726047373E-30
      1.82294646142210E-15  -1.35899467557919E-14
      0.00000000000000E+00
      0.00000000000000E+00   0.00000000000000E+00   0.00000000000000E+00   0.00000000000000E+00   7.20493008187577E-15
     -8.41498463019154E-33   7.20493008187577E-15   6.05834450323863E-15   0.00000000000000E+00   0.00000000000000E+00
      0.00000000000000E+00   0.00000000000000E+00   0.00000000000000E+00   0.00000000000000E+00   0.00000000000000E+00
      1.47261856883630E-15   0.00000000000000E+00   0.00000000000000E+00   0.00000000000000E+00   0.00000000000000E+00
      1.42670743182079E-15  -5.33876997059374E-32   1.42670743182079E-15   6.05898368371697E-15   0.00000000000000E+00
      0.00000000000000E+00   0.00000000000000E+00   0.00000000000000E+00  -8.63163751369656E-15  -3.24620510975981E-31
     -8.63163751369656E-15  -1.35899467557919E-14
      0.00000000000000E+00
      0.00000000000000E+00   0.00000000000000E+00   0.00000000000000E+00   0.00000000000000E+00   6.05183221078788E-16
      7.02972109579187E-32   6.05183221078788E-16   6.05834450323864E-15   0.00000000000000E+00   0.00000000000000E+00
      0.00000000000000E+00   0.00000000000000E+00   0.00000000000000E+00   0.00000000000000E+00   0.00000000000000E+00
      1.47261856883630E-15   0.00000000000000E+00   0.00000000000000E+00   0.00000000000000E+00   0.00000000000000E+00
     -3.07781982465679E-16  -3.03691080893542E-32  -3.07781982465679E-16   6.05898368371697E-15   0.00000000000000E+00
      0.00000000000000E+00   0.00000000000000E+00   0.00000000000000E+00  -2.97401238613109E-16  -8.24226953259595E-31
     -2.97401238613110E-16  -1.35899467557919E-14
      0.00000000000000E+00
      0.00000000000000E+00   0.00000000000000E+00   0.00000000000000E+00   0.00000000000000E+00   7.29362012754272E-16
      4.90120330062751E-32   7.29362012754272E-16   6.05834450323864E-15   0.00000000000000E+00   0.00000000000000E+00
      0.00000000000000E+00   0.00000000000000E+00   0.00000000000000E+00   0.00000000000000E+00   0.00000000000000E+00
      1.47261856883630E-15   0.00000000000000E+00   0.00000000000000E+00   0.00000000000000E+00   0.00000000000000E+00
      2.20712382109872E-16   1.78667671545960E-32   2.20712382109872E-16   6.05898368371697E-15   0.00000000000000E+00
      0.00000000000000E+00   0.00000000000000E+00   0.00000000000000E+00  -9.50074394864144E-16  -8.41235700289226E-31
     -9.50074394864145E-16  -1.35899467557919E-14
      1.00000000000000E-01
      0.00000000000000E+00   0.00000000000000E+00   0.00000000000000E+00   0.00000000000000E+00   1.17695579070027E-15
      8.74336508532001E-32   1.17695579070027E-15   6.03569192428952E-15   2.50000000000000E-01   2.50000000000000E-01
      0.00000000000000E+00   0.00000000000000E+00   0.00000000000000E+00   0.00000000000000E+00   0.00000000000000E+00
      1.87703327025925E-15   0.00000000000000E+00   0.00000000000000E+00   0.00000000000000E+00   0.00000000000000E+00
      1.37113189235806E-15   9.87108259763032E-32   1.37113189235806E-15   6.03633158652059E-15   0.00000000000000E+00
      0.00000000000000E+00   0.00000000000000E+00   0.00000000000000E+00  -2.54808768305827E-15  -5.75171739901722E-29
     -2.54808768305833E-15  -1.39490567810694E-14
      2.00000000000000E-01
      0.00000000000000E+00   0.00000000000000E+00   0.00000000000000E+00   0.00000000000000E+00  -5.54756765463750E-16
     -4.98429491549049E-32  -5.54756765463750E-16   6.01499917400959E-15   5.00000000000000E-01   5.00000000000000E-01
      0.00000000000000E+00   0.00000000000000E+00   0.00000000000000E+00   0.00000000000000E+00   0.00000000000000E+00
      2.27009863894032E-15   0.00000000000000E+00   0.00000000000000E+00   0.00000000000000E+00   0.00000000000000E+00
      3.14996191492086E-16   1.68180733871512E-32   3.14996191492086E-16   6.01563922119738E-15   0.00000000000000E+00
      0.00000000000000E+00   0.00000000000000E+00   0.00000000000000E+00   2.39760573971665E-16  -7.50531136990622E-31
      2.39760573971664E-16  -1.43007370341473E-14
      3.00000000000000E-01
      0.00000000000000E+00   0.00000000000000E+00   0.00000000000000E+00   0.00000000000000E+00   1.74020583809205E-16
      3.42996893856402E-32   1.74020583809205E-16   5.99625156267533E-15   7.50000000000000E-01   7.50000000000000E-01
      0.00000000000000E+00   0.00000000000000E+00   0.00000000000000E+00   0.00000000000000E+00   0.00000000000000E+00
      2.78971118915857E-15   0.00000000000000E+00   0.00000000000000E+00   0.00000000000000E+00   0.00000000000000E+00
      2.52022752871490E-15   1.80599065813101E-31   2.52022752871490E-15   5.99689179544461E-15   0.00000000000000E+00
      0.00000000000000E+00   0.00000000000000E+00   0.00000000000000E+00  -2.69424811252411E-15  -8.91912819477471E-31
     -2.69424811252411E-15  -1.47828545472785E-14
      4.00000000000000E-01
      0.00000000000000E+00   0.00000000000000E+00   0.00000000000000E+00   0.00000000000000E+00   8.29386538746810E-16
      8.57731912899774E-32   8.29386538746810E-16   5.97849384425667E-15   1.00000000000000E+00   1.00000000000000E+00
      0.00000000000000E+00   0.00000000000000E+00   0.00000000000000E+00   0.00000000000000E+00   0.00000000000000E+00
      3.56076893356711E-15   0.00000000000000E+00   0.00000000000000E+00   0.00000000000000E+00   0.00000000000000E+00
      1.23332688385713E-15   9.74067425250242E-32   1.23332688385713E-15   5.97913412628319E-15   0.00000000000000E+00
      0.00000000000000E+00   0.00000000000000E+00   0.00000000000000E+00  -2.06271342260394E-15  -8.70177446927360E-31
     -2.06271342260394E-15  -1.55183969041070E-14
      5.00000000000000E-01
      0.00000000000000E+00   0.00000000000000E+00   0.00000000000000E+00   0.00000000000000E+00   1.15200944940634E-15
      2.72570350997754E-31   1.15200944940634E-15   5.96105588509470E-15   1.25000000000000E+00   1.25000000000000E+00
      0.00000000000000E+00   0.00000000000000E+00   0.00000000000000E+00   0.00000000000000E+00   0.00000000000000E+00
      4.39265984218239E-15   0.00000000000000E+00   0.00000000000000E+00   0.00000000000000E+00   0.00000000000000E+00
      1.51094125026203E-15   2.65961242374057E-31   1.51094125026203E-15   5.96169618941665E-15   0.00000000000000E+00
      0.00000000000000E+00   0.00000000000000E+00   0.00000000000000E+00  -2.66295069966896E-15   5.86613773803693E-28
     -2.66295069966837E-15  -1.63154119166937E-14
      6.00000000000000E-01
      0.00000000000000E+00   0.00000000000000E+00   0.00000000000000E+00   0.00000000000000E+00   1.16050550938207E-15
      9.10559089580288E-32   1.16050550938207E-15   5.94378467033686E-15   1.50000000000000E+00   1.50000000000000E+00
      0.00000000000000E+00   0.00000000000000E+00   0.00000000000000E+00   0.00000000000000E+00   0.00000000000000E+00
      5.24440915034894E-15   0.00000000000000E+00   0.00000000000000E+00   0.00000000000000E+00   0.00000000000000E+00
      9.10555912356830E-16   6.63385273527947E-32   9.10555912356830E-16   5.94442498784420E-15   0.00000000000000E+00
      0.00000000000000E+00   0.00000000000000E+00   0.00000000000000E+00  -2.07106142173890E-15  -8.39705787167007E-31
     -2.07106142173890E-15  -1.71326188085300E-14
      7.00000000000000E-01
      0.00000000000000E+00   0.00000000000000E+00   0.00000000000000E+00   0.00000000000000E+00   1.08386411648786E-15
      8.72232885707803E-32   1.08386411648786E-15   5.92662298834150E-15   1.75000000000000E+00   1.75000000000000E+00
      0.00000000000000E+00   0.00000000000000E+00   0.00000000000000E+00   0.00000000000000E+00   0.00000000000000E+00
      6.10609290374664E-15   0.00000000000000E+00   0.00000000000000E+00   0.00000000000000E+00   0.00000000000000E+00
      1.12774057434358E-15   9.37225125032278E-32   1.12774057434358E-15   5.92726331470057E-15   0.00000000000000E+00
      0.00000000000000E+00   0.00000000000000E+00   0.00000000000000E+00  -2.21160469074119E-15  -9.02670017869127E-26
     -2.21160469083145E-15  -1.79599792067887E-14
      8.00000000000000E-01
      0.00000000000000E+00   0.00000000000000E+00   0.00000000000000E+00   0.00000000000000E+00   7.75692244890622E-16
      7.76517815698564E-32   7.75692244890622E-16   5.90954116535347E-15   2.00000000000000E+00   2.00000000000000E+00
      0.00000000000000E+00   0.00000000000000E+00   0.00000000000000E+00   0.00000000000000E+00   0.00000000000000E+00
      6.97382318081066E-15   0.00000000000000E+00   0.00000000000000E+00   0.00000000000000E+00   0.00000000000000E+00
      5.46129887192531E-16   4.31613125515852E-32   5.46129887192531E-16   5.91018149811914E-15   0.00000000000000E+00
      0.00000000000000E+00   0.00000000000000E+00   0.00000000000000E+00  -1.32182213207418E-15  -8.97500200524220E-27
     -1.32182213208316E-15  -1.87935458442833E-14
      9.00000000000000E-01
      0.00000000000000E+00   0.00000000000000E+00   0.00000000000000E+00   0.00000000000000E+00   1.56386740526210E-15
      1.14010025838607E-31   1.56386740526210E-15   5.89252113299636E-15   2.25000000000000E+00   2.25000000000000E+00
      0.00000000000000E+00   0.00000000000000E+00   0.00000000000000E+00   0.00000000000000E+00   0.00000000000000E+00
      7.84565911672018E-15   0.00000000000000E+00   0.00000000000000E+00   0.00000000000000E+00   0.00000000000000E+00
      1.39961273570838E-15   1.09831380620859E-31   1.39961273570838E-15   5.89316147063982E-15   0.00000000000000E+00
      0.00000000000000E+00   0.00000000000000E+00   0.00000000000000E+00  -2.96348014096896E-15  -1.51967297429463E-27
     -2.96348014097048E-15  -1.96313417203564E-14
      1.00000000000000E+00
      0.00000000000000E+00   0.00000000000000E+00   0.00000000000000E+00   0.00000000000000E+00   1.54284349669611E-15
      1.15678353432724E-31   1.54284349669611E-15   5.87555079064742E-15   2.50000000000000E+00   2.50000000000000E+00
      0.00000000000000E+00   0.00000000000000E+00   0.00000000000000E+00   0.00000000000000E+00   0.00000000000000E+00
      8.72048241892846E-15   0.00000000000000E+00   0.00000000000000E+00   0.00000000000000E+00   0.00000000000000E+00
      1.39988455051790E-15   9.76800236194407E-32   1.39988455051790E-15   5.87619113214321E-15   0.00000000000000E+00
      0.00000000000000E+00   0.00000000000000E+00   0.00000000000000E+00  -2.94272804721402E-15   5.96837799357200E-30
     -2.94272804721401E-15  -2.04722243417191E-14
}
