DF-ISE text

Info {
  version   = 1.0
  type      = xyplot
  datasets  = [
    "time"
    "Source OuterVoltage" "Source InnerVoltage" "Source QuasiFermiPotential" "Source DisplacementCurrent" "Source eCurrent"
    "Source hCurrent" "Source TotalCurrent" "Source Charge" "Gate OuterVoltage" "Gate InnerVoltage"
    "Gate QuasiFermiPotential" "Gate DisplacementCurrent" "Gate eCurrent" "Gate hCurrent" "Gate TotalCurrent"
    "Gate Charge" "Drain OuterVoltage" "Drain InnerVoltage" "Drain QuasiFermiPotential" "Drain DisplacementCurrent"
    "Drain eCurrent" "Drain hCurrent" "Drain TotalCurrent" "Drain Charge" "Body OuterVoltage"
    "Body InnerVoltage" "Body QuasiFermiPotential" "Body DisplacementCurrent" "Body eCurrent" "Body hCurrent"
    "Body TotalCurrent" "Body Charge" ]
  functions = [
    Time
    OuterVoltage InnerVoltage QuasiFermiPotential DisplacementCurrent eCurrent
    hCurrent TotalCurrent Charge OuterVoltage InnerVoltage
    QuasiFermiPotential DisplacementCurrent eCurrent hCurrent TotalCurrent
    Charge OuterVoltage InnerVoltage QuasiFermiPotential DisplacementCurrent
    eCurrent hCurrent TotalCurrent Charge OuterVoltage
    InnerVoltage QuasiFermiPotential DisplacementCurrent eCurrent hCurrent
    TotalCurrent Charge ]
}

Data {
      0.00000000000000E+00
      0.00000000000000E+00   0.00000000000000E+00   0.00000000000000E+00   0.00000000000000E+00   7.54278676229027E-16
      6.53956304591707E-32   7.54278676229027E-16   5.87555079064742E-15   2.50000000000000E+00   2.50000000000000E+00
      0.00000000000000E+00   0.00000000000000E+00   0.00000000000000E+00   0.00000000000000E+00   0.00000000000000E+00
      8.72048241892845E-15   0.00000000000000E+00   0.00000000000000E+00   0.00000000000000E+00   0.00000000000000E+00
      1.19310835975422E-15   9.47399455320268E-32   1.19310835975422E-15   5.87619113214321E-15   0.00000000000000E+00
      0.00000000000000E+00   0.00000000000000E+00   0.00000000000000E+00  -1.94738703598324E-15  -9.29268058102185E-31
     -1.94738703598324E-15  -2.04722243417191E-14
      1.00000000000000E-03
      0.00000000000000E+00   0.00000000000000E+00   0.00000000000000E+00   0.00000000000000E+00  -9.29809335037863E-08
     -1.07685538695219E-25  -9.29809335037863E-08   5.87554613640565E-15   2.50000000000000E+00   2.50000000000000E+00
      0.00000000000000E+00   0.00000000000000E+00   0.00000000000000E+00   0.00000000000000E+00   0.00000000000000E+00
      8.71175360609434E-15   5.00000000000000E-03   5.00000000000000E-03   0.00000000000000E+00   0.00000000000000E+00
      9.29809350175888E-08   4.51140063659986E-20   9.29809350176339E-08   5.88001733364463E-15   0.00000000000000E+00
      0.00000000000000E+00   0.00000000000000E+00   0.00000000000000E+00  -1.50509893326052E-15  -8.74916202962838E-18
     -1.51384809529014E-15  -2.04673170761447E-14
      2.14000000000000E-03
      0.00000000000000E+00   0.00000000000000E+00   0.00000000000000E+00   0.00000000000000E+00  -1.98448970864916E-07
     -2.29833294018255E-25  -1.98448970864916E-07   5.87554085277849E-15   2.50000000000000E+00   2.50000000000000E+00
      0.00000000000000E+00   0.00000000000000E+00   0.00000000000000E+00   0.00000000000000E+00   0.00000000000000E+00
      8.70181545576939E-15   1.07000000000000E-02   1.07000000000000E-02   0.00000000000000E+00   0.00000000000000E+00
      1.98448971615982E-07   8.69103744285575E-20   1.98448971616069E-07   5.88437660842432E-15   0.00000000000000E+00
      0.00000000000000E+00   0.00000000000000E+00   0.00000000000000E+00  -7.32759822449847E-16  -1.83940666145002E-17
     -7.51153889064347E-16  -2.04617329169722E-14
      3.43960000000000E-03
      0.00000000000000E+00   0.00000000000000E+00   0.00000000000000E+00   0.00000000000000E+00  -3.17986350749152E-07
     -3.68275833482146E-25  -3.17986350749152E-07   5.87553485834648E-15   2.50000000000000E+00   2.50000000000000E+00
      0.00000000000000E+00   0.00000000000000E+00   0.00000000000000E+00   0.00000000000000E+00   0.00000000000000E+00
      8.69050255232718E-15   1.71980000000000E-02   1.71980000000000E-02   0.00000000000000E+00   0.00000000000000E+00
      3.17986341508337E-07   1.24513278749274E-19   3.17986341508461E-07   5.88934205066367E-15   0.00000000000000E+00
      0.00000000000000E+00   0.00000000000000E+00   0.00000000000000E+00   9.26968307110732E-15  -2.89958931798264E-17
      9.24068717792749E-15  -2.04553794613373E-14
      4.92114400000000E-03
      0.00000000000000E+00   0.00000000000000E+00   0.00000000000000E+00   0.00000000000000E+00  -4.53350275164263E-07
     -5.25048871154099E-25  -4.53350275164263E-07   5.87552806226590E-15   2.50000000000000E+00   2.50000000000000E+00
      0.00000000000000E+00   0.00000000000000E+00   0.00000000000000E+00   0.00000000000000E+00   0.00000000000000E+00
      8.67762753855842E-15   2.46057200000000E-02   2.46057200000000E-02   0.00000000000000E+00   0.00000000000000E+00
      4.53350275844993E-07   1.57226754630292E-19   4.53350275845150E-07   5.89499612747767E-15   0.00000000000000E+00
      0.00000000000000E+00   0.00000000000000E+00   0.00000000000000E+00  -6.40284051406873E-16  -4.06051961455235E-17
     -6.80889247552396E-16  -2.04481517283020E-14
      6.55084240000000E-03
      0.00000000000000E+00   0.00000000000000E+00   0.00000000000000E+00   0.00000000000000E+00  -6.01130343475344E-07
     -6.96202531060176E-25  -6.01130343475344E-07   5.87552063279829E-15   2.50000000000000E+00   2.50000000000000E+00
      0.00000000000000E+00   0.00000000000000E+00   0.00000000000000E+00   0.00000000000000E+00   0.00000000000000E+00
      8.66349192558809E-15   3.27542120000000E-02   3.27542120000000E-02   0.00000000000000E+00   0.00000000000000E+00
      6.01130343820895E-07   1.83794517443880E-19   6.01130343821079E-07   5.90120592509529E-15   0.00000000000000E+00
      0.00000000000000E+00   0.00000000000000E+00   0.00000000000000E+00  -2.92928084053267E-16  -5.28147539160214E-17
     -3.45742837969289E-16  -2.04402184834817E-14
      8.34351064000000E-03
      0.00000000000000E+00   0.00000000000000E+00   0.00000000000000E+00   0.00000000000000E+00  -7.62332569872605E-07
     -8.82902108152473E-25  -7.62332569872605E-07   5.87551251630410E-15   2.50000000000000E+00   2.50000000000000E+00
      0.00000000000000E+00   0.00000000000000E+00   0.00000000000000E+00   0.00000000000000E+00   0.00000000000000E+00
      8.64797559249007E-15   4.17175532000000E-02   4.17175532000000E-02   0.00000000000000E+00   0.00000000000000E+00
      7.62332571263094E-07   2.04698726263551E-19   7.62332571263298E-07   5.90802268679318E-15   0.00000000000000E+00
      0.00000000000000E+00   0.00000000000000E+00   0.00000000000000E+00  -1.32512417661888E-15  -6.55769822033267E-17
     -1.39070115882220E-15  -2.04315107955874E-14
      1.03154457040000E-02
      0.00000000000000E+00   0.00000000000000E+00   0.00000000000000E+00   0.00000000000000E+00  -9.38015872291111E-07
     -1.08637444223324E-24  -9.38015872291111E-07   5.87550365580844E-15   2.50000000000000E+00   2.50000000000000E+00
      0.00000000000000E+00   0.00000000000000E+00   0.00000000000000E+00   0.00000000000000E+00   0.00000000000000E+00
      8.63094777101833E-15   5.15772285200000E-02   5.15772285200000E-02   0.00000000000000E+00   0.00000000000000E+00
      9.38015869410536E-07   2.20566328436018E-19   9.38015869410756E-07   5.91550102570815E-15   0.00000000000000E+00
      0.00000000000000E+00   0.00000000000000E+00   0.00000000000000E+00   2.95914602503748E-15  -7.87968625800773E-17
      2.88034916245741E-15  -2.04219524525349E-14
      1.24845742744000E-02
      0.00000000000000E+00   0.00000000000000E+00   0.00000000000000E+00   0.00000000000000E+00  -1.12928765218311E-06
     -1.30790268769827E-24  -1.12928765218311E-06   5.87549399110178E-15   2.50000000000000E+00   2.50000000000000E+00
      0.00000000000000E+00   0.00000000000000E+00   0.00000000000000E+00   0.00000000000000E+00   0.00000000000000E+00
      8.61226631006981E-15   6.24228713720000E-02   6.24228713720000E-02   0.00000000000000E+00   0.00000000000000E+00
      1.12928765289071E-06   2.32117854029660E-19   1.12928765289095E-06   5.92369860553914E-15   0.00000000000000E+00
      0.00000000000000E+00   0.00000000000000E+00   0.00000000000000E+00  -6.15532579227175E-16  -9.23218019364425E-17
     -7.07854381163617E-16  -2.04114589067107E-14
      1.47838505590240E-02
      0.00000000000000E+00   0.00000000000000E+00   0.00000000000000E+00   0.00000000000000E+00  -1.32977679552074E-06
     -1.54010769471620E-24  -1.32977679552074E-06   5.87548384011861E-15   2.50000000000000E+00   2.50000000000000E+00
      0.00000000000000E+00   0.00000000000000E+00   0.00000000000000E+00   0.00000000000000E+00   0.00000000000000E+00
      8.59252091300540E-15   7.39192527951200E-02   7.39192527951200E-02   0.00000000000000E+00   0.00000000000000E+00
      1.32977679572214E-06   2.39882560004770E-19   1.32977679572238E-06   5.93234996083971E-15   0.00000000000000E+00
      0.00000000000000E+00   0.00000000000000E+00   0.00000000000000E+00  -9.61944877061376E-17  -1.05471182980324E-16
     -2.01665670686461E-16  -2.04003547139637E-14
      1.72210834207255E-02
      0.00000000000000E+00   0.00000000000000E+00   0.00000000000000E+00   0.00000000000000E+00  -1.53976489246512E-06
     -1.78331603736054E-24  -1.53976489246512E-06   5.87547318528157E-15   2.50000000000000E+00   2.50000000000000E+00
      0.00000000000000E+00   0.00000000000000E+00   0.00000000000000E+00   0.00000000000000E+00   0.00000000000000E+00
      8.57165571636576E-15   8.61054171036273E-02   8.61054171036273E-02   0.00000000000000E+00   0.00000000000000E+00
      1.53976497986786E-06   2.44858837287519E-19   1.53976497986810E-06   5.94147114647429E-15   0.00000000000000E+00
      0.00000000000000E+00   0.00000000000000E+00   0.00000000000000E+00  -8.72849169533785E-14  -1.18085020972045E-16
     -8.74030019743506E-14  -2.03886000481216E-14
      1.98045502541290E-02
      0.00000000000000E+00   0.00000000000000E+00   0.00000000000000E+00   0.00000000000000E+00  -1.75951925728101E-06
     -2.03783709835869E-24  -1.75951925728101E-06   5.87546200940973E-15   2.50000000000000E+00   2.50000000000000E+00
      0.00000000000000E+00   0.00000000000000E+00   0.00000000000000E+00   0.00000000000000E+00   0.00000000000000E+00
      8.54961270298564E-15   9.90227512706449E-02   9.90227512706449E-02   0.00000000000000E+00   0.00000000000000E+00
      1.75951925915873E-06   2.42327145366738E-19   1.75951925915897E-06   5.95107674645085E-15   0.00000000000000E+00
      0.00000000000000E+00   0.00000000000000E+00   0.00000000000000E+00  -1.74793955318762E-15  -1.30038146953507E-16
     -1.87797770014113E-15  -2.03761514588462E-14
      2.24396864242006E-02
      0.00000000000000E+00   0.00000000000000E+00   0.00000000000000E+00   0.00000000000000E+00  -1.98067682598877E-06
     -2.29398582116352E-24  -1.98067682598877E-06   5.87545073547628E-15   2.50000000000000E+00   2.50000000000000E+00
      0.00000000000000E+00   0.00000000000000E+00   0.00000000000000E+00   0.00000000000000E+00   0.00000000000000E+00
      8.52720871833662E-15   1.12198432121003E-01   1.12198432121003E-01   0.00000000000000E+00   0.00000000000000E+00
      1.98067682594882E-06   2.44532888176671E-19   1.98067682594906E-06   5.96079993204240E-15   0.00000000000000E+00
      0.00000000000000E+00   0.00000000000000E+00   0.00000000000000E+00   1.80589548104459E-16  -1.40898004584622E-16
      3.96915435198374E-17  -2.03634593858553E-14
      2.54437416580822E-02
      0.00000000000000E+00   0.00000000000000E+00   0.00000000000000E+00   0.00000000000000E+00  -2.22912720502673E-06
     -2.58174824423912E-24  -2.22912720502673E-06   5.87543803786325E-15   2.50000000000000E+00   2.50000000000000E+00
      0.00000000000000E+00   0.00000000000000E+00   0.00000000000000E+00   0.00000000000000E+00   0.00000000000000E+00
      8.50176839567349E-15   1.27218708290411E-01   1.27218708290411E-01   0.00000000000000E+00   0.00000000000000E+00
      2.22912723603880E-06   4.64340848924633E-19   2.22912723603927E-06   5.97178318528588E-15   0.00000000000000E+00
      0.00000000000000E+00   0.00000000000000E+00   0.00000000000000E+00  -3.08604219039095E-14  -1.52135397979585E-16
     -3.10125573018891E-14  -2.03489896188226E-14
      2.88683646247073E-02
      0.00000000000000E+00   0.00000000000000E+00   0.00000000000000E+00   0.00000000000000E+00  -2.50761514326714E-06
     -2.90430365220276E-24  -2.50761514326714E-06   5.87542376381297E-15   2.50000000000000E+00   2.50000000000000E+00
      0.00000000000000E+00   0.00000000000000E+00   0.00000000000000E+00   0.00000000000000E+00   0.00000000000000E+00
      8.47289934217313E-15   1.44341823123536E-01   1.44341823123536E-01   0.00000000000000E+00   0.00000000000000E+00
      2.50761514206708E-06   2.11360119984127E-19   2.50761514206729E-06   5.98416159799519E-15   0.00000000000000E+00
      0.00000000000000E+00   0.00000000000000E+00   0.00000000000000E+00   1.36299709849443E-15  -1.63174320472346E-16
      1.19982277802209E-15  -2.03324847039813E-14
      3.27724348066598E-02
      0.00000000000000E+00   0.00000000000000E+00   0.00000000000000E+00   0.00000000000000E+00  -2.81896107755667E-06
     -3.26492024852085E-24  -2.81896107755667E-06   5.87540775323640E-15   2.50000000000000E+00   2.50000000000000E+00
      0.00000000000000E+00   0.00000000000000E+00   0.00000000000000E+00   0.00000000000000E+00   0.00000000000000E+00
      8.44016542192683E-15   1.63862174033299E-01   1.63862174033299E-01   0.00000000000000E+00   0.00000000000000E+00
      2.81896103906145E-06   2.30101498461178E-19   2.81896103906168E-06   5.99807682179494E-15   0.00000000000000E+00
      0.00000000000000E+00   0.00000000000000E+00   0.00000000000000E+00   3.86701423029051E-14  -1.75182864092261E-16
      3.84949594388129E-14  -2.03136499969582E-14
      3.72230748140857E-02
      0.00000000000000E+00   0.00000000000000E+00   0.00000000000000E+00   0.00000000000000E+00  -3.16598282204111E-06
     -3.66686319743448E-24  -3.16598282204111E-06   5.87538984197458E-15   2.50000000000000E+00   2.50000000000000E+00
      0.00000000000000E+00   0.00000000000000E+00   0.00000000000000E+00   0.00000000000000E+00   0.00000000000000E+00
      8.40308471026212E-15   1.86115374070429E-01   1.86115374070429E-01   0.00000000000000E+00   0.00000000000000E+00
      3.16598282214306E-06   2.48124422500697E-19   3.16598282214331E-06   6.01367993383359E-15   0.00000000000000E+00
      0.00000000000000E+00   0.00000000000000E+00   0.00000000000000E+00   8.66406913427349E-17  -1.88868684060548E-16
     -1.02227992717813E-16  -2.02921544860703E-14
      4.21187788222542E-02
      0.00000000000000E+00   0.00000000000000E+00   0.00000000000000E+00   0.00000000000000E+00  -3.53804707546882E-06
     -4.09781768830069E-24  -3.53804707546882E-06   5.87537055962875E-15   2.50000000000000E+00   2.50000000000000E+00
      0.00000000000000E+00   0.00000000000000E+00   0.00000000000000E+00   0.00000000000000E+00   0.00000000000000E+00
      8.36259508075928E-15   2.10593894111271E-01   2.10593894111271E-01   0.00000000000000E+00   0.00000000000000E+00
      3.53804707543167E-06   2.49641809622209E-19   3.53804707543192E-06   6.03053432604240E-15   0.00000000000000E+00
      0.00000000000000E+00   0.00000000000000E+00   0.00000000000000E+00   2.42222517628188E-16  -2.05344452264207E-16
      3.68780653639812E-17  -2.02684999664304E-14
      4.75040532312396E-02
      0.00000000000000E+00   0.00000000000000E+00   0.00000000000000E+00   0.00000000000000E+00  -3.93573574967846E-06
     -4.55845894652221E-24  -3.93573574967846E-06   5.87534985810923E-15   2.50000000000000E+00   2.50000000000000E+00
      0.00000000000000E+00   0.00000000000000E+00   0.00000000000000E+00   0.00000000000000E+00   0.00000000000000E+00
      8.31843061051905E-15   2.37520266156198E-01   2.37520266156198E-01   0.00000000000000E+00   0.00000000000000E+00
      3.93573575159895E-06   2.49639664636627E-19   3.93573575159920E-06   6.04874076694441E-15   0.00000000000000E+00
      0.00000000000000E+00   0.00000000000000E+00   0.00000000000000E+00  -1.69423831394120E-15  -2.26529870959948E-16
     -1.92076818490115E-15  -2.02425212355727E-14
      5.34278550811235E-02
      0.00000000000000E+00   0.00000000000000E+00   0.00000000000000E+00   0.00000000000000E+00  -4.35932336480845E-06
     -5.04910658074361E-24  -4.35932336480845E-06   5.87532770328997E-15   2.50000000000000E+00   2.50000000000000E+00
      0.00000000000000E+00   0.00000000000000E+00   0.00000000000000E+00   0.00000000000000E+00   0.00000000000000E+00
      8.27031899277265E-15   2.67139275405618E-01   2.67139275405618E-01   0.00000000000000E+00   0.00000000000000E+00
      4.35932336694706E-06   2.49697351509187E-19   4.35932336694731E-06   6.06844426786617E-15   0.00000000000000E+00
      0.00000000000000E+00   0.00000000000000E+00   0.00000000000000E+00  -1.88553198973301E-15  -2.53365470528718E-16
     -2.13889746026172E-15  -2.02140909639288E-14
      5.99440371159958E-02
      0.00000000000000E+00   0.00000000000000E+00   0.00000000000000E+00   0.00000000000000E+00  -4.80868296145557E-06
     -5.56961475878898E-24  -4.80868296145557E-06   5.87530408021461E-15   2.50000000000000E+00   2.50000000000000E+00
      0.00000000000000E+00   0.00000000000000E+00   0.00000000000000E+00   0.00000000000000E+00   0.00000000000000E+00
      8.21798681990630E-15   2.99720185579979E-01   2.99720185579979E-01   0.00000000000000E+00   0.00000000000000E+00
      4.80868296085199E-06   2.49701887449153E-19   4.80868296085224E-06   6.08984635686653E-15   0.00000000000000E+00
      0.00000000000000E+00   0.00000000000000E+00   0.00000000000000E+00   8.86812667269933E-16  -2.83509663565785E-16
      6.03303003704148E-16  -2.01831372569874E-14
      6.71118373543553E-02
      0.00000000000000E+00   0.00000000000000E+00   0.00000000000000E+00   0.00000000000000E+00  -5.28317382767796E-06
     -6.11924259277877E-24  -5.28317382767796E-06   5.87527899952980E-15   2.50000000000000E+00   2.50000000000000E+00
      0.00000000000000E+00   0.00000000000000E+00   0.00000000000000E+00   0.00000000000000E+00   0.00000000000000E+00
      8.16116731252590E-15   3.35559186771777E-01   3.35559186771777E-01   0.00000000000000E+00   0.00000000000000E+00
      5.28317382987398E-06   3.44689668373906E-19   5.28317382987433E-06   6.11320709545585E-15   0.00000000000000E+00
      0.00000000000000E+00   0.00000000000000E+00   0.00000000000000E+00  -1.88473367169135E-15  -3.11660652489144E-16
     -2.19639432418049E-15  -2.01496534075115E-14
      7.49964176165508E-02
      0.00000000000000E+00   0.00000000000000E+00   0.00000000000000E+00   0.00000000000000E+00  -5.78150877829000E-06
     -6.69650013281762E-24  -5.78150877829000E-06   5.87525250532880E-15   2.50000000000000E+00   2.50000000000000E+00
      0.00000000000000E+00   0.00000000000000E+00   0.00000000000000E+00   0.00000000000000E+00   0.00000000000000E+00
      8.09961142832279E-15   3.74982088082754E-01   3.74982088082754E-01   0.00000000000000E+00   0.00000000000000E+00
      5.78150871735562E-06   2.49735755701756E-19   5.78150871735587E-06   6.13883735972591E-15   0.00000000000000E+00
      0.00000000000000E+00   0.00000000000000E+00   0.00000000000000E+00   6.12681646903855E-14  -3.34063634104806E-16
      6.09341010562807E-14  -2.01137012933775E-14
      8.39848391154536E-02
      0.00000000000000E+00   0.00000000000000E+00   0.00000000000000E+00   0.00000000000000E+00  -6.31996412610380E-06
     -7.32024339199722E-24  -6.31996412610380E-06   5.87522369902949E-15   2.50000000000000E+00   2.50000000000000E+00
      0.00000000000000E+00   0.00000000000000E+00   0.00000000000000E+00   0.00000000000000E+00   0.00000000000000E+00
      8.03070978382998E-15   4.19924195577268E-01   4.19924195577268E-01   0.00000000000000E+00   0.00000000000000E+00
      6.31996388478793E-06   2.49786104215816E-19   6.31996388478818E-06   6.16811751861385E-15   0.00000000000000E+00
      0.00000000000000E+00   0.00000000000000E+00   0.00000000000000E+00   2.41668108990305E-13  -3.52527234109885E-16
      2.41315581756195E-13  -2.00740510014733E-14
      9.42316396242029E-02
      0.00000000000000E+00   0.00000000000000E+00   0.00000000000000E+00   0.00000000000000E+00  -6.89604438803101E-06
     -7.98758747052971E-24  -6.89604438803101E-06   5.87519267065675E-15   2.50000000000000E+00   2.50000000000000E+00
      0.00000000000000E+00   0.00000000000000E+00   0.00000000000000E+00   0.00000000000000E+00   0.00000000000000E+00
      7.95391252153823E-15   4.71158198121014E-01   4.71158198121014E-01   0.00000000000000E+00   0.00000000000000E+00
      6.89604439010994E-06   2.49815921051098E-19   6.89604439011019E-06   6.20170266880247E-15   0.00000000000000E+00
      0.00000000000000E+00   0.00000000000000E+00   0.00000000000000E+00  -1.70966381662797E-15  -3.69538084109875E-16
     -2.07920190073785E-15  -2.00308078609974E-14
      1.05503120183827E-01
      0.00000000000000E+00   0.00000000000000E+00   0.00000000000000E+00   0.00000000000000E+00  -7.48434986163413E-06
     -8.66910702815080E-24  -7.48434986163413E-06   5.87516075699053E-15   2.50000000000000E+00   2.50000000000000E+00
      0.00000000000000E+00   0.00000000000000E+00   0.00000000000000E+00   0.00000000000000E+00   0.00000000000000E+00
      7.87173077780184E-15   5.27515600919135E-01   5.27515600919135E-01   0.00000000000000E+00   0.00000000000000E+00
      7.48434986102474E-06   2.49851025793452E-19   7.48434986102499E-06   6.23898801300018E-15   0.00000000000000E+00
      0.00000000000000E+00   0.00000000000000E+00   0.00000000000000E+00   9.96289756056327E-16  -3.87188416972629E-16
      6.09101339083698E-16  -1.99858795477925E-14
      1.17901748799414E-01
      0.00000000000000E+00   0.00000000000000E+00   0.00000000000000E+00   0.00000000000000E+00  -8.07805392795793E-06
     -9.35689663570469E-24  -8.07805392795793E-06   5.87512831429646E-15   2.50000000000000E+00   2.50000000000000E+00
      0.00000000000000E+00   0.00000000000000E+00   0.00000000000000E+00   0.00000000000000E+00   0.00000000000000E+00
      7.78430681411458E-15   5.89508743997068E-01   5.89508743997068E-01   0.00000000000000E+00   0.00000000000000E+00
      8.07805392824552E-06   2.49888825300620E-19   8.07805392824577E-06   6.28046721590370E-15   0.00000000000000E+00
      0.00000000000000E+00   0.00000000000000E+00   0.00000000000000E+00   1.20772510079188E-16  -4.08654385327575E-16
     -2.87881875248387E-16  -1.99399023443148E-14
      1.31540240276559E-01
      0.00000000000000E+00   0.00000000000000E+00   0.00000000000000E+00   0.00000000000000E+00  -8.66848512364852E-06
     -1.00409101455107E-23  -8.66848512364852E-06   5.87509581135162E-15   2.50000000000000E+00   2.50000000000000E+00
      0.00000000000000E+00   0.00000000000000E+00   0.00000000000000E+00   0.00000000000000E+00   0.00000000000000E+00
      7.69201932433303E-15   6.57701201382794E-01   6.57701201382794E-01   0.00000000000000E+00   0.00000000000000E+00
      8.66848512627319E-06   2.49929516853879E-19   8.66848512627344E-06   6.32668216129402E-15   0.00000000000000E+00
      0.00000000000000E+00   0.00000000000000E+00   0.00000000000000E+00  -2.18577021469773E-15  -4.39193932010763E-16
     -2.62496414670849E-15  -1.98937972969787E-14
      1.46542580901419E-01
      0.00000000000000E+00   0.00000000000000E+00   0.00000000000000E+00   0.00000000000000E+00  -9.24488127542570E-06
     -1.07086798530417E-23  -9.24488127542570E-06   5.87506384739015E-15   2.50000000000000E+00   2.50000000000000E+00
      0.00000000000000E+00   0.00000000000000E+00   0.00000000000000E+00   0.00000000000000E+00   0.00000000000000E+00
      7.59558799015371E-15   7.32712904507093E-01   7.32712904507093E-01   0.00000000000000E+00   0.00000000000000E+00
      9.24488127612448E-06   2.49973224844420E-19   9.24488127612473E-06   6.37823842146119E-15   0.00000000000000E+00
      0.00000000000000E+00   0.00000000000000E+00   0.00000000000000E+00  -2.07517795476841E-16  -4.91537359130372E-16
     -6.99055154607212E-16  -1.98488902590050E-14
      1.63045155588764E-01
      0.00000000000000E+00   0.00000000000000E+00   0.00000000000000E+00   0.00000000000000E+00  -9.79418229909944E-06
     -1.13450740794942E-23  -9.79418229909944E-06   5.87503316789764E-15   2.50000000000000E+00   2.50000000000000E+00
      0.00000000000000E+00   0.00000000000000E+00   0.00000000000000E+00   0.00000000000000E+00   0.00000000000000E+00
      7.49622001479397E-15   8.15225777943822E-01   8.15225777943822E-01   0.00000000000000E+00   0.00000000000000E+00
      9.79418229762207E-06   2.50020082099145E-19   9.79418229762231E-06   6.43582228684061E-15   0.00000000000000E+00
      0.00000000000000E+00   0.00000000000000E+00   0.00000000000000E+00   2.05487087870055E-15  -5.77790631182520E-16
      1.47708024751803E-15  -1.98070754695322E-14
      1.81197987744845E-01
      0.00000000000000E+00   0.00000000000000E+00   0.00000000000000E+00   0.00000000000000E+00  -1.03010282713755E-05
     -1.19322936305714E-23  -1.03010282713755E-05   5.87500466807994E-15   2.50000000000000E+00   2.50000000000000E+00
      0.00000000000000E+00   0.00000000000000E+00   0.00000000000000E+00   0.00000000000000E+00   0.00000000000000E+00
      7.39579793416312E-15   9.05989938724223E-01   9.05989938724223E-01   0.00000000000000E+00   0.00000000000000E+00
      1.03010282705125E-05   2.50070522334155E-19   1.03010282705128E-05   6.50021709955259E-15   0.00000000000000E+00
      0.00000000000000E+00   0.00000000000000E+00   0.00000000000000E+00   1.52454689108584E-15  -6.61923721982776E-16
      8.62623169103066E-16  -1.97710197017956E-14
      2.01166103116533E-01
      0.00000000000000E+00   0.00000000000000E+00   0.00000000000000E+00   0.00000000000000E+00  -1.07483634950600E-05
     -1.24505740750259E-23  -1.07483634950600E-05   5.87497935980592E-15   2.50000000000000E+00   2.50000000000000E+00
      0.00000000000000E+00   0.00000000000000E+00   0.00000000000000E+00   0.00000000000000E+00   0.00000000000000E+00
      7.29706946218685E-15   1.00583051558267E+00   1.00583051558267E+00   0.00000000000000E+00   0.00000000000000E+00
      1.07483634950312E-05   2.50125349094449E-19   1.07483634950315E-05   6.57231491473126E-15   0.00000000000000E+00
      0.00000000000000E+00   0.00000000000000E+00   0.00000000000000E+00   7.36367943654043E-16  -7.07847401987426E-16
      2.85205416666168E-17  -1.97443637367240E-14
      2.23131030025390E-01
      0.00000000000000E+00   0.00000000000000E+00   0.00000000000000E+00   0.00000000000000E+00  -1.11194079048162E-05
     -1.28804705920019E-23  -1.11194079048162E-05   5.87495825637778E-15   2.50000000000000E+00   2.50000000000000E+00
      0.00000000000000E+00   0.00000000000000E+00   0.00000000000000E+00   0.00000000000000E+00   0.00000000000000E+00
      7.20370349339887E-15   1.11565515012695E+00   1.11565515012695E+00   0.00000000000000E+00   0.00000000000000E+00
      1.11194079030624E-05   2.50181264663839E-19   1.11194079030626E-05   6.65312231617106E-15   0.00000000000000E+00
      0.00000000000000E+00   0.00000000000000E+00   0.00000000000000E+00   2.48594161661383E-15  -7.32385262226567E-16
      1.75355635438726E-15  -1.97317840659477E-14
      2.47292449625133E-01
      0.00000000000000E+00   0.00000000000000E+00   0.00000000000000E+00   0.00000000000000E+00  -1.14025239401482E-05
     -1.32084965345632E-23  -1.14025239401482E-05   5.87494208537079E-15   2.50000000000000E+00   2.50000000000000E+00
      0.00000000000000E+00   0.00000000000000E+00   0.00000000000000E+00   0.00000000000000E+00   0.00000000000000E+00
      7.11979306609412E-15   1.23646224812567E+00   1.23646224812567E+00   0.00000000000000E+00   0.00000000000000E+00
      1.14025239391716E-05   2.50241390164983E-19   1.14025239391718E-05   6.74375641574163E-15   0.00000000000000E+00
      0.00000000000000E+00   0.00000000000000E+00   0.00000000000000E+00   1.72730350506626E-15  -7.50931925390947E-16
      9.76371579675314E-16  -1.97384915672065E-14
      2.73870011184850E-01
      0.00000000000000E+00   0.00000000000000E+00   0.00000000000000E+00   0.00000000000000E+00  -1.16003681820073E-05
     -1.34377261093899E-23  -1.16003681820073E-05   5.87493074942008E-15   2.50000000000000E+00   2.50000000000000E+00
      0.00000000000000E+00   0.00000000000000E+00   0.00000000000000E+00   0.00000000000000E+00   0.00000000000000E+00
      7.04797635387639E-15   1.36935005592425E+00   1.36935005592425E+00   0.00000000000000E+00   0.00000000000000E+00
      1.16003681802324E-05   2.50304894389274E-19   1.16003681802327E-05   6.84538709181214E-15   0.00000000000000E+00
      0.00000000000000E+00   0.00000000000000E+00   0.00000000000000E+00   2.53974975765670E-15  -7.65156394392520E-16
      1.77459336326418E-15  -1.97682941951086E-14
      3.03105328900539E-01
      0.00000000000000E+00   0.00000000000000E+00   0.00000000000000E+00   0.00000000000000E+00  -1.17347514981806E-05
     -1.35934287161339E-23  -1.17347514981806E-05   5.87492303286961E-15   2.50000000000000E+00   2.50000000000000E+00
      0.00000000000000E+00   0.00000000000000E+00   0.00000000000000E+00   0.00000000000000E+00   0.00000000000000E+00
      6.98714487978381E-15   1.51552664450270E+00   1.51552664450270E+00   0.00000000000000E+00   0.00000000000000E+00
      1.17347514950301E-05   2.50373230729792E-19   1.17347514950303E-05   6.95897767929525E-15   0.00000000000000E+00
      0.00000000000000E+00   0.00000000000000E+00   0.00000000000000E+00   3.92764460456938E-15  -7.77403338535741E-16
      3.15024126603364E-15  -1.98210455919487E-14
      3.35264178387797E-01
      0.00000000000000E+00   0.00000000000000E+00   0.00000000000000E+00   0.00000000000000E+00  -1.18327286031644E-05