DF-ISE text

Info {
  version   = 1.0
  type      = xyplot
  datasets  = [
    "time"
    "Cathode OuterVoltage" "Cathode InnerVoltage" "Cathode QuasiFermiPotential" "Cathode DisplacementCurrent" "Cathode eCurrent"
    "Cathode hCurrent" "Cathode TotalCurrent" "Cathode Charge" "Anode OuterVoltage" "Anode InnerVoltage"
    "Anode QuasiFermiPotential" "Anode DisplacementCurrent" "Anode eCurrent" "Anode hCurrent" "Anode TotalCurrent"
    "Anode Charge" ]
  functions = [
    Time
    OuterVoltage InnerVoltage QuasiFermiPotential DisplacementCurrent eCurrent
    hCurrent TotalCurrent Charge OuterVoltage InnerVoltage
    QuasiFermiPotential DisplacementCurrent eCurrent hCurrent TotalCurrent
    Charge ]
}

Data {
      0.00000000000000E+00
      0.00000000000000E+00   0.00000000000000E+00   0.00000000000000E+00   0.00000000000000E+00  -4.40018682882701E-30
     -4.05189964106498E-20  -4.05189964150500E-20   4.66168996374554E-16   0.00000000000000E+00   0.00000000000000E+00
      0.00000000000000E+00   0.00000000000000E+00   4.50983474441540E-30   4.05189964105402E-20   4.05189964150500E-20
     -4.66168996374554E-16
      2.00000000000000E-02
      0.00000000000000E+00   0.00000000000000E+00   0.00000000000000E+00   0.00000000000000E+00  -2.68353848243879E-17
     -2.87817090393433E-18  -2.97135557283222E-17   4.54381986302373E-16   4.00000000000000E-02   4.00000000000000E-02
      0.00000000000000E+00   0.00000000000000E+00   6.84215335544951E-19   2.90293403927773E-17   2.97135557283223E-17
     -4.54381986302373E-16
      4.00000000000000E-02
      0.00000000000000E+00   0.00000000000000E+00   0.00000000000000E+00   0.00000000000000E+00  -9.43432242524990E-17
     -1.74737056479002E-17  -1.11816929900399E-16   4.42294626120635E-16   8.00000000000000E-02   8.00000000000000E-02
      0.00000000000000E+00   0.00000000000000E+00   3.89836131416146E-18   1.07918568586238E-16   1.11816929900399E-16
     -4.42294626120635E-16
      6.00000000000000E-02
      0.00000000000000E+00   0.00000000000000E+00   0.00000000000000E+00   0.00000000000000E+00  -2.53696858857546E-16
     -9.41592904431793E-17  -3.47856149300725E-16   4.29691250277270E-16   1.20000000000000E-01   1.20000000000000E-01
      0.00000000000000E+00   0.00000000000000E+00   1.89972853355667E-17   3.28858863965161E-16   3.47856149300727E-16
     -4.29691250277271E-16
      8.00000000000000E-02
      0.00000000000000E+00   0.00000000000000E+00   0.00000000000000E+00   0.00000000000000E+00  -6.24460966064881E-16
     -4.02982664636727E-16  -1.02744363070161E-15   4.16316823351719E-16   1.60000000000000E-01   1.60000000000000E-01
      0.00000000000000E+00   0.00000000000000E+00   8.99267237625508E-17   9.37516906939058E-16   1.02744363070161E-15
     -4.16316823351720E-16
      1.00000000000000E-01
      0.00000000000000E+00   0.00000000000000E+00   0.00000000000000E+00   0.00000000000000E+00  -1.57036341324112E-15
     -1.89097316154881E-15  -3.46133657478993E-15   4.01979486672721E-16   2.00000000000000E-01   2.00000000000000E-01
      0.00000000000000E+00   0.00000000000000E+00   4.23121717254273E-16   3.03821485753565E-15   3.46133657478992E-15
     -4.01979486672720E-16
      1.20000000000000E-01
      0.00000000000000E+00   0.00000000000000E+00   0.00000000000000E+00   0.00000000000000E+00  -4.42846467521733E-15
     -8.86265795304699E-15  -1.32911226282643E-14   3.86646364455263E-16   2.40000000000000E-01   2.40000000000000E-01
      0.00000000000000E+00   0.00000000000000E+00   1.98829902245819E-15   1.13028236058060E-14   1.32911226282642E-14
     -3.86646364455262E-16
      1.40000000000000E-01
      0.00000000000000E+00   0.00000000000000E+00   0.00000000000000E+00   0.00000000000000E+00  -1.46743867522576E-14
     -4.15255454122939E-14  -5.61999321645516E-14   3.70440178739856E-16   2.80000000000000E-01   2.80000000000000E-01
      0.00000000000000E+00   0.00000000000000E+00   9.34058041620843E-15   4.68593517483430E-14   5.61999321645514E-14
     -3.70440178739857E-16
      1.60000000000000E-01
      0.00000000000000E+00   0.00000000000000E+00   0.00000000000000E+00   0.00000000000000E+00  -5.62422399019816E-14
     -1.94541905524017E-13  -2.50784145425998E-13   3.53559890764448E-16   3.20000000000000E-01   3.20000000000000E-01
      0.00000000000000E+00   0.00000000000000E+00   4.38768344891633E-14   2.06907310936834E-13   2.50784145425998E-13
     -3.53559890764446E-16
      1.80000000000000E-01
      0.00000000000000E+00   0.00000000000000E+00   0.00000000000000E+00   0.00000000000000E+00  -2.37580814271232E-13
     -9.11377522034867E-13  -1.14895833630610E-12   3.36202803046927E-16   3.60000000000000E-01   3.60000000000000E-01
      0.00000000000000E+00   0.00000000000000E+00   2.06103982632541E-13   9.42854353673559E-13   1.14895833630610E-12
     -3.36202803046927E-16
      2.00000000000000E-01
      0.00000000000000E+00   0.00000000000000E+00   0.00000000000000E+00   0.00000000000000E+00  -1.05910903052425E-12
     -4.26919904398641E-12  -5.32830807451066E-12   3.18512719466154E-16   4.00000000000000E-01   4.00000000000000E-01
      0.00000000000000E+00   0.00000000000000E+00   9.68124480232318E-13   4.36018359427832E-12   5.32830807451063E-12
     -3.18512719466154E-16
      2.20000000000000E-01
      0.00000000000000E+00   0.00000000000000E+00   0.00000000000000E+00   0.00000000000000E+00  -4.85044927054126E-12
     -1.99949348525517E-11  -2.48453841230930E-11   3.00537239841442E-16   4.40000000000000E-01   4.40000000000000E-01
      0.00000000000000E+00   0.00000000000000E+00   4.54745001873961E-12   2.02979341043533E-11   2.48453841230929E-11
     -3.00537239841441E-16
      2.40000000000000E-01
      0.00000000000000E+00   0.00000000000000E+00   0.00000000000000E+00   0.00000000000000E+00  -2.25023211634817E-11
     -9.36131780501665E-11  -1.16115499213648E-10   2.82183496494602E-16   4.80000000000000E-01   4.80000000000000E-01
      0.00000000000000E+00   0.00000000000000E+00   2.13592026444255E-11   9.47562965692220E-11   1.16115499213648E-10
     -2.82183496494601E-16
      2.60000000000000E-01
      0.00000000000000E+00   0.00000000000000E+00   0.00000000000000E+00   0.00000000000000E+00  -1.05013112047826E-10
     -4.37883082811103E-10  -5.42896194858929E-10   2.63205328701226E-16   5.20000000000000E-01   5.20000000000000E-01
      0.00000000000000E+00   0.00000000000000E+00   1.00307554360245E-10   4.42588640498684E-10   5.42896194858929E-10
     -2.63205328701226E-16
      2.80000000000000E-01
      0.00000000000000E+00   0.00000000000000E+00   0.00000000000000E+00   0.00000000000000E+00  -4.91027470892832E-10
     -2.04206535784625E-09  -2.53309282873909E-09   2.43296497916013E-16   5.60000000000000E-01   5.60000000000000E-01
      0.00000000000000E+00   0.00000000000000E+00   4.70760620573075E-10   2.06233220816602E-09   2.53309282873909E-09
     -2.43296497916013E-16
      3.00000000000000E-01
      0.00000000000000E+00   0.00000000000000E+00   0.00000000000000E+00   0.00000000000000E+00  -2.28966164918683E-09
     -9.41065412693500E-09  -1.17003157761218E-08   2.22250896781983E-16   6.00000000000000E-01   6.00000000000000E-01
      0.00000000000000E+00   0.00000000000000E+00   2.20309752686267E-09   9.49721824925919E-09   1.17003157761219E-08
     -2.22250896781982E-16
      3.20000000000000E-01
      0.00000000000000E+00   0.00000000000000E+00   0.00000000000000E+00   0.00000000000000E+00  -1.05177586059283E-08
     -4.14185317451527E-08  -5.19362903510811E-08   1.99897533292822E-16   6.40000000000000E-01   6.40000000000000E-01
      0.00000000000000E+00   0.00000000000000E+00   1.01872828401453E-08   4.17490075109357E-08   5.19362903510810E-08
     -1.99897533292822E-16
      3.40000000000000E-01
      0.00000000000000E+00   0.00000000000000E+00   0.00000000000000E+00   0.00000000000000E+00  -4.61543952866993E-08
     -1.59238057319686E-07  -2.05392452606385E-07   1.75821974925485E-16   6.80000000000000E-01   6.80000000000000E-01
      0.00000000000000E+00   0.00000000000000E+00   4.51427379233734E-08   1.60249714683011E-07   2.05392452606385E-07
     -1.75821974925484E-16
      3.60000000000000E-01
      0.00000000000000E+00   0.00000000000000E+00   0.00000000000000E+00   0.00000000000000E+00  -1.81861768751038E-07
     -4.81655460431222E-07  -6.63517229182260E-07   1.50329755620406E-16   7.20000000000000E-01   7.20000000000000E-01
      0.00000000000000E+00   0.00000000000000E+00   1.79235157950709E-07   4.84282071231551E-07   6.63517229182259E-07
     -1.50329755620406E-16
      3.80000000000000E-01
      0.00000000000000E+00   0.00000000000000E+00   0.00000000000000E+00   0.00000000000000E+00  -5.91935315176802E-07
     -1.12271913362020E-06  -1.71465444879700E-06   1.26364715127371E-16   7.60000000000000E-01   7.60000000000000E-01
      0.00000000000000E+00   0.00000000000000E+00   5.85872517547716E-07   1.12878193124929E-06   1.71465444879701E-06
     -1.26364715127371E-16
      4.00000000000000E-01
      0.00000000000000E+00   0.00000000000000E+00   0.00000000000000E+00   0.00000000000000E+00  -1.52346129143130E-06
     -2.12621004318017E-06  -3.64967133461147E-06   1.07062077362987E-16   8.00000000000000E-01   8.00000000000000E-01
      0.00000000000000E+00   0.00000000000000E+00   1.51157168847006E-06   2.13809964614140E-06   3.64967133461146E-06
     -1.07062077362987E-16
      4.20000000000000E-01
      0.00000000000000E+00   0.00000000000000E+00   0.00000000000000E+00   0.00000000000000E+00  -3.17843107719829E-06
     -3.49271606667301E-06  -6.67114714387130E-06   9.26923832270824E-17   8.40000000000000E-01   8.40000000000000E-01
      0.00000000000000E+00   0.00000000000000E+00   3.15863960635626E-06   3.51250753751504E-06   6.67114714387130E-06
     -9.26923832270823E-17
      4.40000000000000E-01
      0.00000000000000E+00   0.00000000000000E+00   0.00000000000000E+00   0.00000000000000E+00  -5.66848183186923E-06
     -5.22117352723691E-06  -1.08896553591061E-05   8.20115592745953E-17   8.80000000000000E-01   8.80000000000000E-01
      0.00000000000000E+00   0.00000000000000E+00   5.63936683926120E-06   5.25028851984494E-06   1.08896553591061E-05
     -8.20115592745953E-17
      4.60000000000000E-01
      0.00000000000000E+00   0.00000000000000E+00   0.00000000000000E+00   0.00000000000000E+00  -9.04888048000468E-06
     -7.31606198421292E-06  -1.63649424642176E-05   7.38381645596415E-17   9.20000000000000E-01   9.20000000000000E-01
      0.00000000000000E+00   0.00000000000000E+00   9.00952182160705E-06   7.35542064261054E-06   1.63649424642176E-05
     -7.38381645596414E-17
      4.80000000000000E-01
      0.00000000000000E+00   0.00000000000000E+00   0.00000000000000E+00   0.00000000000000E+00  -1.33503114169946E-05
     -9.78395552474104E-06  -2.31342669417357E-05   6.73727074016655E-17   9.60000000000000E-01   9.60000000000000E-01
      0.00000000000000E+00   0.00000000000000E+00   1.33000872994902E-05   9.83417964224550E-06   2.31342669417357E-05
     -6.73727074016656E-17
      5.00000000000000E-01
      0.00000000000000E+00   0.00000000000000E+00   0.00000000000000E+00   0.00000000000000E+00  -1.85926291369931E-05
     -1.26312152994644E-05  -3.12238444364576E-05   6.21069496489735E-17   1.00000000000000E+00   1.00000000000000E+00
      0.00000000000000E+00   0.00000000000000E+00   1.85310866551858E-05   1.26927577812717E-05   3.12238444364575E-05
     -6.21069496489736E-17
      5.20000000000000E-01
      0.00000000000000E+00   0.00000000000000E+00   0.00000000000000E+00   0.00000000000000E+00  -2.47895283392290E-05
     -1.58630382598252E-05  -4.06525665990542E-05   5.77140817364545E-17   1.04000000000000E+00   1.04000000000000E+00
      0.00000000000000E+00   0.00000000000000E+00   2.47163135610646E-05   1.59362530379897E-05   4.06525665990542E-05
     -5.77140817364546E-17
      5.40000000000000E-01
      0.00000000000000E+00   0.00000000000000E+00   0.00000000000000E+00   0.00000000000000E+00  -3.19499022664631E-05
     -1.94830499516165E-05  -5.14329522180796E-05   5.39773318479398E-17   1.08000000000000E+00   1.08000000000000E+00
      0.00000000000000E+00   0.00000000000000E+00   3.18647238949195E-05   1.95682283231601E-05   5.14329522180796E-05
     -5.39773318479397E-17
      5.60000000000000E-01
      0.00000000000000E+00   0.00000000000000E+00   0.00000000000000E+00   0.00000000000000E+00  -4.00780691176769E-05
     -2.34930798018209E-05  -6.35711489194978E-05   5.07479630401400E-17   1.12000000000000E+00   1.12000000000000E+00
      0.00000000000000E+00   0.00000000000000E+00   3.99806797086254E-05   2.35904692108723E-05   6.35711489194976E-05
     -5.07479630401398E-17
      5.80000000000000E-01
      0.00000000000000E+00   0.00000000000000E+00   0.00000000000000E+00   0.00000000000000E+00  -4.91736091597690E-05
     -2.78929950804296E-05  -7.70666042401986E-05   4.79206417003206E-17   1.16000000000000E+00   1.16000000000000E+00
      0.00000000000000E+00   0.00000000000000E+00   4.90637955137866E-05   2.80028087264117E-05   7.70666042401983E-05
     -4.79206417003206E-17
      6.00000000000000E-01
      0.00000000000000E+00   0.00000000000000E+00   0.00000000000000E+00   0.00000000000000E+00  -5.92310691387022E-05
     -3.26805544049707E-05  -9.19116235436728E-05   4.54186449595073E-17   1.20000000000000E+00   1.20000000000000E+00
      0.00000000000000E+00   0.00000000000000E+00   5.91086475987100E-05   3.28029759449629E-05   9.19116235436728E-05
     -4.54186449595074E-17
      6.20000000000000E-01
      0.00000000000000E+00   0.00000000000000E+00   0.00000000000000E+00   0.00000000000000E+00  -7.02396295758978E-05
     -3.78512704473867E-05  -1.08090900023284E-04   4.31846976568508E-17   1.24000000000000E+00   1.24000000000000E+00
      0.00000000000000E+00   0.00000000000000E+00   7.01044440230031E-05   3.79864560002819E-05   1.08090900023285E-04
     -4.31846976568508E-17
      6.40000000000000E-01
      0.00000000000000E+00   0.00000000000000E+00   0.00000000000000E+00   0.00000000000000E+00  -8.21827769987973E-05
     -4.33982819018761E-05  -1.25581058900673E-04   4.11751154014413E-17   1.28000000000000E+00   1.28000000000000E+00
      0.00000000000000E+00   0.00000000000000E+00   8.20346983665355E-05   4.35463605341381E-05   1.25581058900674E-04
     -4.11751154014413E-17
      6.60000000000000E-01
      0.00000000000000E+00   0.00000000000000E+00   0.00000000000000E+00   0.00000000000000E+00  -9.50380062694092E-05
     -4.93122392168798E-05  -1.44350245486289E-04   3.93559484956817E-17   1.32000000000000E+00   1.32000000000000E+00
      0.00000000000000E+00   0.00000000000000E+00   9.48769329179503E-05   4.94733125683386E-05   1.44350245486289E-04
     -3.93559484956817E-17
      6.80000000000000E-01
      0.00000000000000E+00   0.00000000000000E+00   0.00000000000000E+00   0.00000000000000E+00  -1.08776574470879E-04
     -5.55812111517036E-05  -1.64357785622582E-04   3.77003733709100E-17   1.36000000000000E+00   1.36000000000000E+00
      0.00000000000000E+00   0.00000000000000E+00   1.08602433032606E-04   5.57553525899766E-05   1.64357785622582E-04
     -3.77003733709099E-17
      7.00000000000000E-01
      0.00000000000000E+00   0.00000000000000E+00   0.00000000000000E+00   0.00000000000000E+00  -1.23363329090962E-04
     -6.21906212009377E-05  -1.85553950291900E-04   3.61868838182634E-17   1.40000000000000E+00   1.40000000000000E+00
      0.00000000000000E+00   0.00000000000000E+00   1.23176075540444E-04   6.23778747514559E-05   1.85553950291899E-04
     -3.61868838182635E-17
      7.20000000000000E-01
      0.00000000000000E+00   0.00000000000000E+00   0.00000000000000E+00   0.00000000000000E+00  -1.38756636274929E-04
     -6.91232246678793E-05  -2.07879860942808E-04   3.47980082206121E-17   1.44000000000000E+00   1.44000000000000E+00
      0.00000000000000E+00   0.00000000000000E+00   1.38556257050667E-04   6.93236038921410E-05   2.07879860942808E-04
     -3.47980082206121E-17
      7.40000000000000E-01
      0.00000000000000E+00   0.00000000000000E+00   0.00000000000000E+00   0.00000000000000E+00  -1.54908437996558E-04
     -7.63591385599839E-05  -2.31267576556542E-04   3.35193808107403E-17   1.48000000000000E+00   1.48000000000000E+00
      0.00000000000000E+00   0.00000000000000E+00   1.54694951040254E-04   7.65726255162881E-05   2.31267576556542E-04
     -3.35193808107404E-17
      7.60000000000000E-01
      0.00000000000000E+00   0.00000000000000E+00   0.00000000000000E+00   0.00000000000000E+00  -1.71764468760369E-04
     -8.38759371862600E-05  -2.55640405946629E-04   3.23390562705200E-17   1.52000000000000E+00   1.52000000000000E+00
      0.00000000000000E+00   0.00000000000000E+00   1.71537924358867E-04   8.41024815877628E-05   2.55640405946630E-04
     -3.23390562705200E-17
      7.80000000000000E-01
      0.00000000000000E+00   0.00000000000000E+00   0.00000000000000E+00   0.00000000000000E+00  -1.89264661446687E-04
     -9.16488258386262E-05  -2.80913487285313E-04   3.12469948809754E-17   1.56000000000000E+00   1.56000000000000E+00
      0.00000000000000E+00   0.00000000000000E+00   1.89025142772331E-04   9.18883445129823E-05   2.80913487285313E-04
     -3.12469948809755E-17
      8.00000000000000E-01
      0.00000000000000E+00   0.00000000000000E+00   0.00000000000000E+00   0.00000000000000E+00  -2.07343766652742E-04
     -9.96509026469489E-05  -3.06994669299690E-04   3.02346694739192E-17   1.60000000000000E+00   1.60000000000000E+00
      0.00000000000000E+00   0.00000000000000E+00   2.07091389906335E-04   9.99032793933546E-05   3.06994669299690E-04
     -3.02346694739192E-17
      8.20000000000000E-01
      0.00000000000000E+00   0.00000000000000E+00   0.00000000000000E+00   0.00000000000000E+00  -2.25932199032802E-04
     -1.07853514072921E-04  -3.33785713105722E-04   2.92947610644105E-17   1.64000000000000E+00   1.64000000000000E+00
      0.00000000000000E+00   0.00000000000000E+00   2.25667113104737E-04   1.08118600000986E-04   3.33785713105722E-04
     -2.92947610644107E-17
      8.40000000000000E-01
      0.00000000000000E+00   0.00000000000000E+00   0.00000000000000E+00   0.00000000000000E+00  -2.44957107120878E-04
     -1.16226702324605E-04  -3.61183809445483E-04   2.84209204268147E-17   1.68000000000000E+00   1.68000000000000E+00
      0.00000000000000E+00   0.00000000000000E+00   2.44679492703808E-04   1.16504316741675E-04   3.61183809445483E-04
     -2.84209204268147E-17
      8.60000000000000E-01
      0.00000000000000E+00   0.00000000000000E+00   0.00000000000000E+00   0.00000000000000E+00  -2.64343640636572E-04
     -1.24739733545694E-04  -3.89083374182266E-04   2.76075798872013E-17   1.72000000000000E+00   1.72000000000000E+00
      0.00000000000000E+00   0.00000000000000E+00   2.64053708749474E-04   1.25029665432795E-04   3.89083374182268E-04
     -2.76075798872012E-17
      8.80000000000000E-01
      0.00000000000000E+00   0.00000000000000E+00   0.00000000000000E+00   0.00000000000000E+00  -2.84016363917551E-04
     -1.33361685060950E-04  -4.17378048978501E-04   2.68498043584652E-17   1.76000000000000E+00   1.76000000000000E+00
      0.00000000000000E+00   0.00000000000000E+00   2.83714353836055E-04   1.33663695142447E-04   4.17378048978503E-04
     -2.68498043584652E-17
      9.00000000000000E-01
      0.00000000000000E+00   0.00000000000000E+00   0.00000000000000E+00   0.00000000000000E+00  -3.03900740306197E-04
     -1.42062060099070E-04  -4.45962800405267E-04   2.61431738225636E-17   1.80000000000000E+00   1.80000000000000E+00
      0.00000000000000E+00   0.00000000000000E+00   3.03586916935305E-04   1.42375883469961E-04   4.45962800405267E-04
     -2.61431738225636E-17
      9.20000000000000E-01
      0.00000000000000E+00   0.00000000000000E+00   0.00000000000000E+00   0.00000000000000E+00  -3.23924595512469E-04
     -1.50811391553828E-04  -4.74735987066297E-04   2.54836915062371E-17   1.84000000000000E+00   1.84000000000000E+00
      0.00000000000000E+00   0.00000000000000E+00   3.23599246280349E-04   1.51136740785949E-04   4.74735987066298E-04
     -2.54836915062371E-17
      9.40000000000001E-01
      0.00000000000000E+00   0.00000000000000E+00   0.00000000000000E+00   0.00000000000000E+00  -3.44019463177503E-04
     -1.59581794547206E-04  -5.03601257724708E-04   2.48677132225160E-17   1.88000000000000E+00   1.88000000000000E+00
      0.00000000000000E+00   0.00000000000000E+00   3.43682894566574E-04   1.59918363158134E-04   5.03601257724708E-04
     -2.48677132225161E-17
      9.60000000000001E-01
      0.00000000000000E+00   0.00000000000000E+00   0.00000000000000E+00   0.00000000000000E+00  -3.64121725625175E-04
     -1.68347431859772E-04  -5.32469157484947E-04   2.42918940300201E-17   1.92000000000000E+00   1.92000000000000E+00
      0.00000000000000E+00   0.00000000000000E+00   3.63774259482961E-04   1.68694898001984E-04   5.32469157484946E-04
     -2.42918940300201E-17
      9.80000000000001E-01
      0.00000000000000E+00   0.00000000000000E+00   0.00000000000000E+00   0.00000000000000E+00  -3.84173485966737E-04
     -1.77084866161118E-04  -5.61258352127855E-04   2.37531487372956E-17   1.96000000000000E+00   1.96000000000000E+00
      0.00000000000000E+00   0.00000000000000E+00   3.83815455749390E-04   1.77442896378464E-04   5.61258352127854E-04
     -2.37531487372955E-17
      1.00000000000000E+00
      0.00000000000000E+00   0.00000000000000E+00   0.00000000000000E+00   0.00000000000000E+00  -4.04123139519273E-04
     -1.85773286362915E-04  -5.89896425882188E-04   2.32486230524162E-17   2.00000000000000E+00   2.00000000000000E+00
      0.00000000000000E+00   0.00000000000000E+00   4.03754886614333E-04   1.86141539267856E-04   5.89896425882189E-04
     -2.32486230524163E-17
}
