DF-ISE text

Info {
  version   = 1.0
  type      = xyplot
  datasets  = [
    "time"
    "Cathode OuterVoltage" "Cathode InnerVoltage" "Cathode QuasiFermiPotential" "Cathode DisplacementCurrent" "Cathode eCurrent"
    "Cathode hCurrent" "Cathode TotalCurrent" "Cathode Charge" "Anode OuterVoltage" "Anode InnerVoltage"
    "Anode QuasiFermiPotential" "Anode DisplacementCurrent" "Anode eCurrent" "Anode hCurrent" "Anode TotalCurrent"
    "Anode Charge" ]
  functions = [
    Time
    OuterVoltage InnerVoltage QuasiFermiPotential DisplacementCurrent eCurrent
    hCurrent TotalCurrent Charge OuterVoltage InnerVoltage
    QuasiFermiPotential DisplacementCurrent eCurrent hCurrent TotalCurrent
    Charge ]
}

Data {
      0.00000000000000E+00
      0.00000000000000E+00   0.00000000000000E+00   0.00000000000000E+00   0.00000000000000E+00  -4.18136703507222E-30
     -3.03892473080144E-20  -3.03892473121958E-20   4.66168996374554E-16   0.00000000000000E+00   0.00000000000000E+00
      0.00000000000000E+00   0.00000000000000E+00   4.29070051736127E-30   3.03892473079051E-20   3.03892473121958E-20
     -4.66168996374554E-16
      2.00000000000000E-02
      0.00000000000000E+00   0.00000000000000E+00   0.00000000000000E+00   0.00000000000000E+00  -2.68353848244191E-17
     -2.96232986084676E-18  -2.97977146852659E-17   4.54381986302372E-16   4.00000000000000E-02   4.00000000000000E-02
      0.00000000000000E+00   0.00000000000000E+00   6.84215335576144E-19   2.91134993496897E-17   2.97977146852659E-17
     -4.54381986302373E-16
      4.00000000000000E-02
      0.00000000000000E+00   0.00000000000000E+00   0.00000000000000E+00   0.00000000000000E+00  -9.43432242526990E-17
     -1.76101006007600E-17  -1.11953324853459E-16   4.42294626120634E-16   8.00000000000000E-02   8.00000000000000E-02
      0.00000000000000E+00   0.00000000000000E+00   3.89836131436138E-18   1.08054963539097E-16   1.11953324853459E-16
     -4.42294626120635E-16
      6.00000000000000E-02
      0.00000000000000E+00   0.00000000000000E+00   0.00000000000000E+00   0.00000000000000E+00  -2.53696858858232E-16
     -9.42249792344865E-17  -3.47921838092718E-16   4.29691250277269E-16   1.20000000000000E-01   1.20000000000000E-01
      0.00000000000000E+00   0.00000000000000E+00   1.89972853362522E-17   3.28924552756468E-16   3.47921838092720E-16
     -4.29691250277271E-16
      8.00000000000000E-02
      0.00000000000000E+00   0.00000000000000E+00   0.00000000000000E+00   0.00000000000000E+00  -6.24460966063366E-16
     -4.02905541233214E-16  -1.02736650729658E-15   4.16316823351719E-16   1.60000000000000E-01   1.60000000000000E-01
      0.00000000000000E+00   0.00000000000000E+00   8.99267237610354E-17   9.37439783535546E-16   1.02736650729658E-15
     -4.16316823351720E-16
      1.00000000000000E-01
      0.00000000000000E+00   0.00000000000000E+00   0.00000000000000E+00   0.00000000000000E+00  -1.57036341324057E-15
     -1.89094353915833E-15  -3.46130695239891E-15   4.01979486672721E-16   2.00000000000000E-01   2.00000000000000E-01
      0.00000000000000E+00   0.00000000000000E+00   4.23121717253728E-16   3.03818523514517E-15   3.46130695239890E-15
     -4.01979486672720E-16
      1.20000000000000E-01
      0.00000000000000E+00   0.00000000000000E+00   0.00000000000000E+00   0.00000000000000E+00  -4.42846467521323E-15
     -8.86264807891683E-15  -1.32911127541301E-14   3.86646364455263E-16   2.40000000000000E-01   2.40000000000000E-01
      0.00000000000000E+00   0.00000000000000E+00   1.98829902245408E-15   1.13028137316759E-14   1.32911127541300E-14
     -3.86646364455262E-16
      1.40000000000000E-01
      0.00000000000000E+00   0.00000000000000E+00   0.00000000000000E+00   0.00000000000000E+00  -1.46743867522633E-14
     -4.15255895634923E-14  -5.61999763157556E-14   3.70440178739856E-16   2.80000000000000E-01   2.80000000000000E-01
      0.00000000000000E+00   0.00000000000000E+00   9.34058041621407E-15   4.68593958995414E-14   5.61999763157555E-14
     -3.70440178739857E-16
      1.60000000000000E-01
      0.00000000000000E+00   0.00000000000000E+00   0.00000000000000E+00   0.00000000000000E+00  -5.62422399019816E-14
     -1.94541912277183E-13  -2.50784152179165E-13   3.53559890764448E-16   3.20000000000000E-01   3.20000000000000E-01
      0.00000000000000E+00   0.00000000000000E+00   4.38768344891633E-14   2.06907317690001E-13   2.50784152179164E-13
     -3.53559890764446E-16
      1.80000000000000E-01
      0.00000000000000E+00   0.00000000000000E+00   0.00000000000000E+00   0.00000000000000E+00  -2.37580814270895E-13
     -9.11377541783127E-13  -1.14895835605402E-12   3.36202803046927E-16   3.60000000000000E-01   3.60000000000000E-01
      0.00000000000000E+00   0.00000000000000E+00   2.06103982632204E-13   9.42854373421819E-13   1.14895835605402E-12
     -3.36202803046927E-16
      2.00000000000000E-01
      0.00000000000000E+00   0.00000000000000E+00   0.00000000000000E+00   0.00000000000000E+00  -1.05910903052034E-12
     -4.26919895772897E-12  -5.32830798824931E-12   3.18512719466154E-16   4.00000000000000E-01   4.00000000000000E-01
      0.00000000000000E+00   0.00000000000000E+00   9.68124480228410E-13   4.36018350802087E-12   5.32830798824928E-12
     -3.18512719466154E-16
      2.20000000000000E-01
      0.00000000000000E+00   0.00000000000000E+00   0.00000000000000E+00   0.00000000000000E+00  -4.85044927053705E-12
     -1.99949347777557E-11  -2.48453840482927E-11   3.00537239841442E-16   4.40000000000000E-01   4.40000000000000E-01
      0.00000000000000E+00   0.00000000000000E+00   4.54745001873541E-12   2.02979340295572E-11   2.48453840482926E-11
     -3.00537239841441E-16
      2.40000000000000E-01
      0.00000000000000E+00   0.00000000000000E+00   0.00000000000000E+00   0.00000000000000E+00  -2.25023211634985E-11
     -9.36131781789879E-11  -1.16115499342486E-10   2.82183496494602E-16   4.80000000000000E-01   4.80000000000000E-01
      0.00000000000000E+00   0.00000000000000E+00   2.13592026444424E-11   9.47562966980434E-11   1.16115499342486E-10
     -2.82183496494601E-16
      2.60000000000000E-01
      0.00000000000000E+00   0.00000000000000E+00   0.00000000000000E+00   0.00000000000000E+00  -1.05013112047893E-10
     -4.37883083012675E-10  -5.42896195060568E-10   2.63205328701226E-16   5.20000000000000E-01   5.20000000000000E-01
      0.00000000000000E+00   0.00000000000000E+00   1.00307554360312E-10   4.42588640700257E-10   5.42896195060569E-10
     -2.63205328701226E-16
      2.80000000000000E-01
      0.00000000000000E+00   0.00000000000000E+00   0.00000000000000E+00   0.00000000000000E+00  -4.91027470892504E-10
     -2.04206535794182E-09  -2.53309282883433E-09   2.43296497916013E-16   5.60000000000000E-01   5.60000000000000E-01
      0.00000000000000E+00   0.00000000000000E+00   4.70760620572747E-10   2.06233220826159E-09   2.53309282883433E-09
     -2.43296497916013E-16
      3.00000000000000E-01
      0.00000000000000E+00   0.00000000000000E+00   0.00000000000000E+00   0.00000000000000E+00  -2.28966164918683E-09
     -9.41065412704305E-09  -1.17003157762299E-08   2.22250896781983E-16   6.00000000000000E-01   6.00000000000000E-01
      0.00000000000000E+00   0.00000000000000E+00   2.20309752686267E-09   9.49721824936724E-09   1.17003157762299E-08
     -2.22250896781982E-16
      3.20000000000000E-01
      0.00000000000000E+00   0.00000000000000E+00   0.00000000000000E+00   0.00000000000000E+00  -1.05177586059348E-08
     -4.14185317451527E-08  -5.19362903510875E-08   1.99897533292822E-16   6.40000000000000E-01   6.40000000000000E-01
      0.00000000000000E+00   0.00000000000000E+00   1.01872828401518E-08   4.17490075109357E-08   5.19362903510875E-08
     -1.99897533292822E-16
      3.40000000000000E-01
      0.00000000000000E+00   0.00000000000000E+00   0.00000000000000E+00   0.00000000000000E+00  -4.61543952866194E-08
     -1.59238057319524E-07  -2.05392452606143E-07   1.75821974925485E-16   6.80000000000000E-01   6.80000000000000E-01
      0.00000000000000E+00   0.00000000000000E+00   4.51427379232935E-08   1.60249714682849E-07   2.05392452606143E-07
     -1.75821974925485E-16
      3.60000000000000E-01
      0.00000000000000E+00   0.00000000000000E+00   0.00000000000000E+00   0.00000000000000E+00  -1.81861768750921E-07
     -4.81655460430731E-07  -6.63517229181652E-07   1.50329755620406E-16   7.20000000000000E-01   7.20000000000000E-01
      0.00000000000000E+00   0.00000000000000E+00   1.79235157950591E-07   4.84282071231060E-07   6.63517229181651E-07
     -1.50329755620406E-16
      3.80000000000000E-01
      0.00000000000000E+00   0.00000000000000E+00   0.00000000000000E+00   0.00000000000000E+00  -5.91935315177200E-07
     -1.12271913362047E-06  -1.71465444879767E-06   1.26364715127371E-16   7.60000000000000E-01   7.60000000000000E-01
      0.00000000000000E+00   0.00000000000000E+00   5.85872517548114E-07   1.12878193124956E-06   1.71465444879768E-06
     -1.26364715127371E-16
      4.00000000000000E-01
      0.00000000000000E+00   0.00000000000000E+00   0.00000000000000E+00   0.00000000000000E+00  -1.52346129143137E-06
     -2.12621004318041E-06  -3.64967133461178E-06   1.07062077362987E-16   8.00000000000000E-01   8.00000000000000E-01
      0.00000000000000E+00   0.00000000000000E+00   1.51157168847012E-06   2.13809964614165E-06   3.64967133461177E-06
     -1.07062077362987E-16
      4.20000000000000E-01
      0.00000000000000E+00   0.00000000000000E+00   0.00000000000000E+00   0.00000000000000E+00  -3.17843107719961E-06
     -3.49271606667409E-06  -6.67114714387370E-06   9.26923832270821E-17   8.40000000000000E-01   8.40000000000000E-01
      0.00000000000000E+00   0.00000000000000E+00   3.15863960635758E-06   3.51250753751612E-06   6.67114714387370E-06
     -9.26923832270821E-17
      4.40000000000000E-01
      0.00000000000000E+00   0.00000000000000E+00   0.00000000000000E+00   0.00000000000000E+00  -5.66848183186875E-06
     -5.22117352723708E-06  -1.08896553591058E-05   8.20115592745953E-17   8.80000000000000E-01   8.80000000000000E-01
      0.00000000000000E+00   0.00000000000000E+00   5.63936683926073E-06   5.25028851984510E-06   1.08896553591058E-05
     -8.20115592745953E-17
      4.60000000000000E-01
      0.00000000000000E+00   0.00000000000000E+00   0.00000000000000E+00   0.00000000000000E+00  -9.04888047999917E-06
     -7.31606198420957E-06  -1.63649424642087E-05   7.38381645596419E-17   9.20000000000000E-01   9.20000000000000E-01
      0.00000000000000E+00   0.00000000000000E+00   9.00952182160154E-06   7.35542064260718E-06   1.63649424642087E-05
     -7.38381645596419E-17
      4.80000000000000E-01
      0.00000000000000E+00   0.00000000000000E+00   0.00000000000000E+00   0.00000000000000E+00  -1.33503114169942E-05
     -9.78395552474125E-06  -2.31342669417355E-05   6.73727074016655E-17   9.60000000000000E-01   9.60000000000000E-01
      0.00000000000000E+00   0.00000000000000E+00   1.33000872994898E-05   9.83417964224571E-06   2.31342669417355E-05
     -6.73727074016656E-17
      5.00000000000000E-01
      0.00000000000000E+00   0.00000000000000E+00   0.00000000000000E+00   0.00000000000000E+00  -1.85926291370024E-05
     -1.26312152994691E-05  -3.12238444364714E-05   6.21069496489730E-17   1.00000000000000E+00   1.00000000000000E+00
      0.00000000000000E+00   0.00000000000000E+00   1.85310866551950E-05   1.26927577812763E-05   3.12238444364713E-05
     -6.21069496489731E-17
      5.20000000000000E-01
      0.00000000000000E+00   0.00000000000000E+00   0.00000000000000E+00   0.00000000000000E+00  -2.47895283392275E-05
     -1.58630382598246E-05  -4.06525665990521E-05   5.77140817364545E-17   1.04000000000000E+00   1.04000000000000E+00
      0.00000000000000E+00   0.00000000000000E+00   2.47163135610630E-05   1.59362530379891E-05   4.06525665990521E-05
     -5.77140817364546E-17
      5.40000000000000E-01
      0.00000000000000E+00   0.00000000000000E+00   0.00000000000000E+00   0.00000000000000E+00  -3.19499022664695E-05
     -1.94830499516185E-05  -5.14329522180881E-05   5.39773318479395E-17   1.08000000000000E+00   1.08000000000000E+00
      0.00000000000000E+00   0.00000000000000E+00   3.18647238949260E-05   1.95682283231621E-05   5.14329522180881E-05
     -5.39773318479394E-17
      5.60000000000000E-01
      0.00000000000000E+00   0.00000000000000E+00   0.00000000000000E+00   0.00000000000000E+00  -4.00780691176891E-05
     -2.34930798018276E-05  -6.35711489195166E-05   5.07479630401395E-17   1.12000000000000E+00   1.12000000000000E+00
      0.00000000000000E+00   0.00000000000000E+00   3.99806797086375E-05   2.35904692108789E-05   6.35711489195165E-05
     -5.07479630401393E-17
      5.80000000000000E-01
      0.00000000000000E+00   0.00000000000000E+00   0.00000000000000E+00   0.00000000000000E+00  -4.91736091597955E-05
     -2.78929950804422E-05  -7.70666042402376E-05   4.79206417003197E-17   1.16000000000000E+00   1.16000000000000E+00
      0.00000000000000E+00   0.00000000000000E+00   4.90637955138131E-05   2.80028087264243E-05   7.70666042402374E-05
     -4.79206417003197E-17
      6.00000000000000E-01
      0.00000000000000E+00   0.00000000000000E+00   0.00000000000000E+00   0.00000000000000E+00  -5.92310691386928E-05
     -3.26805544049618E-05  -9.19116235436546E-05   4.54186449595078E-17   1.20000000000000E+00   1.20000000000000E+00
      0.00000000000000E+00   0.00000000000000E+00   5.91086475987006E-05   3.28029759449540E-05   9.19116235436546E-05
     -4.54186449595079E-17
      6.20000000000000E-01
      0.00000000000000E+00   0.00000000000000E+00   0.00000000000000E+00   0.00000000000000E+00  -7.02396295758771E-05
     -3.78512704473781E-05  -1.08090900023255E-04   4.31846976568515E-17   1.24000000000000E+00   1.24000000000000E+00
      0.00000000000000E+00   0.00000000000000E+00   7.01044440229823E-05   3.79864560002733E-05   1.08090900023256E-04
     -4.31846976568515E-17
      6.40000000000000E-01
      0.00000000000000E+00   0.00000000000000E+00   0.00000000000000E+00   0.00000000000000E+00  -8.21827769987803E-05
     -4.33982819018658E-05  -1.25581058900646E-04   4.11751154014418E-17   1.28000000000000E+00   1.28000000000000E+00
      0.00000000000000E+00   0.00000000000000E+00   8.20346983665185E-05   4.35463605341277E-05   1.25581058900646E-04
     -4.11751154014418E-17
      6.60000000000000E-01
      0.00000000000000E+00   0.00000000000000E+00   0.00000000000000E+00   0.00000000000000E+00  -9.50380062694527E-05
     -4.93122392168962E-05  -1.44350245486349E-04   3.93559484956807E-17   1.32000000000000E+00   1.32000000000000E+00
      0.00000000000000E+00   0.00000000000000E+00   9.48769329179938E-05   4.94733125683551E-05   1.44350245486349E-04
     -3.93559484956807E-17
      6.80000000000000E-01
      0.00000000000000E+00   0.00000000000000E+00   0.00000000000000E+00   0.00000000000000E+00  -1.08776574470878E-04
     -5.55812111517040E-05  -1.64357785622582E-04   3.77003733709100E-17   1.36000000000000E+00   1.36000000000000E+00
      0.00000000000000E+00   0.00000000000000E+00   1.08602433032605E-04   5.57553525899770E-05   1.64357785622582E-04
     -3.77003733709099E-17
      7.00000000000000E-01
      0.00000000000000E+00   0.00000000000000E+00   0.00000000000000E+00   0.00000000000000E+00  -1.23363329090927E-04
     -6.21906212009213E-05  -1.85553950291848E-04   3.61868838182641E-17   1.40000000000000E+00   1.40000000000000E+00
      0.00000000000000E+00   0.00000000000000E+00   1.23176075540408E-04   6.23778747514395E-05   1.85553950291848E-04
     -3.61868838182642E-17
      7.20000000000000E-01
      0.00000000000000E+00   0.00000000000000E+00   0.00000000000000E+00   0.00000000000000E+00  -1.38756636274927E-04
     -6.91232246678808E-05  -2.07879860942807E-04   3.47980082206121E-17   1.44000000000000E+00   1.44000000000000E+00
      0.00000000000000E+00   0.00000000000000E+00   1.38556257050664E-04   6.93236038921425E-05   2.07879860942807E-04
     -3.47980082206121E-17
      7.40000000000000E-01
      0.00000000000000E+00   0.00000000000000E+00   0.00000000000000E+00   0.00000000000000E+00  -1.54908437996613E-04
     -7.63591385600058E-05  -2.31267576556619E-04   3.35193808107393E-17   1.48000000000000E+00   1.48000000000000E+00
      0.00000000000000E+00   0.00000000000000E+00   1.54694951040309E-04   7.65726255163099E-05   2.31267576556619E-04
     -3.35193808107394E-17
      7.60000000000000E-01
      0.00000000000000E+00   0.00000000000000E+00   0.00000000000000E+00   0.00000000000000E+00  -1.71764468760374E-04
     -8.38759371862614E-05  -2.55640405946635E-04   3.23390562705200E-17   1.52000000000000E+00   1.52000000000000E+00
      0.00000000000000E+00   0.00000000000000E+00   1.71537924358872E-04   8.41024815877641E-05   2.55640405946636E-04
     -3.23390562705200E-17
      7.80000000000000E-01
      0.00000000000000E+00   0.00000000000000E+00   0.00000000000000E+00   0.00000000000000E+00  -1.89264661446685E-04
     -9.16488258386267E-05  -2.80913487285312E-04   3.12469948809755E-17   1.56000000000000E+00   1.56000000000000E+00
      0.00000000000000E+00   0.00000000000000E+00   1.89025142772329E-04   9.18883445129827E-05   2.80913487285312E-04
     -3.12469948809754E-17
      8.00000000000000E-01
      0.00000000000000E+00   0.00000000000000E+00   0.00000000000000E+00   0.00000000000000E+00  -2.07343766652742E-04
     -9.96509026469487E-05  -3.06994669299691E-04   3.02346694739192E-17   1.60000000000000E+00   1.60000000000000E+00
      0.00000000000000E+00   0.00000000000000E+00   2.07091389906336E-04   9.99032793933544E-05   3.06994669299690E-04
     -3.02346694739192E-17
      8.20000000000000E-01
      0.00000000000000E+00   0.00000000000000E+00   0.00000000000000E+00   0.00000000000000E+00  -2.25932199032807E-04
     -1.07853514072920E-04  -3.33785713105727E-04   2.92947610644106E-17   1.64000000000000E+00   1.64000000000000E+00
      0.00000000000000E+00   0.00000000000000E+00   2.25667113104742E-04   1.08118600000984E-04   3.33785713105727E-04
     -2.92947610644107E-17
      8.40000000000000E-01
      0.00000000000000E+00   0.00000000000000E+00   0.00000000000000E+00   0.00000000000000E+00  -2.44957107120877E-04
     -1.16226702324602E-04  -3.61183809445479E-04   2.84209204268147E-17   1.68000000000000E+00   1.68000000000000E+00
      0.00000000000000E+00   0.00000000000000E+00   2.44679492703807E-04   1.16504316741673E-04   3.61183809445480E-04
     -2.84209204268147E-17
      8.60000000000000E-01
      0.00000000000000E+00   0.00000000000000E+00   0.00000000000000E+00   0.00000000000000E+00  -2.64343640636605E-04
     -1.24739733545711E-04  -3.89083374182316E-04   2.76075798872008E-17   1.72000000000000E+00   1.72000000000000E+00
      0.00000000000000E+00   0.00000000000000E+00   2.64053708749507E-04   1.25029665432811E-04   3.89083374182319E-04
     -2.76075798872007E-17
      8.80000000000000E-01
      0.00000000000000E+00   0.00000000000000E+00   0.00000000000000E+00   0.00000000000000E+00  -2.84016363917485E-04
     -1.33361685060918E-04  -4.17378048978403E-04   2.68498043584662E-17   1.76000000000000E+00   1.76000000000000E+00
      0.00000000000000E+00   0.00000000000000E+00   2.83714353835989E-04   1.33663695142415E-04   4.17378048978404E-04
     -2.68498043584661E-17
      9.00000000000000E-01
      0.00000000000000E+00   0.00000000000000E+00   0.00000000000000E+00   0.00000000000000E+00  -3.03900740306198E-04
     -1.42062060099073E-04  -4.45962800405271E-04   2.61431738225637E-17   1.80000000000000E+00   1.80000000000000E+00
      0.00000000000000E+00   0.00000000000000E+00   3.03586916935306E-04   1.42375883469964E-04   4.45962800405270E-04
     -2.61431738225636E-17
      9.20000000000000E-01
      0.00000000000000E+00   0.00000000000000E+00   0.00000000000000E+00   0.00000000000000E+00  -3.23924595512633E-04
     -1.50811391553896E-04  -4.74735987066529E-04   2.54836915062352E-17   1.84000000000000E+00   1.84000000000000E+00
      0.00000000000000E+00   0.00000000000000E+00   3.23599246280513E-04   1.51136740786017E-04   4.74735987066530E-04
     -2.54836915062352E-17
      9.40000000000001E-01
      0.00000000000000E+00   0.00000000000000E+00   0.00000000000000E+00   0.00000000000000E+00  -3.44019463177567E-04
     -1.59581794547232E-04  -5.03601257724800E-04   2.48677132225151E-17   1.88000000000000E+00   1.88000000000000E+00
      0.00000000000000E+00   0.00000000000000E+00   3.43682894566638E-04   1.59918363158161E-04   5.03601257724800E-04
     -2.48677132225151E-17
      9.60000000000001E-01
      0.00000000000000E+00   0.00000000000000E+00   0.00000000000000E+00   0.00000000000000E+00  -3.64121725625174E-04
     -1.68347431859775E-04  -5.32469157484949E-04   2.42918940300202E-17   1.92000000000000E+00   1.92000000000000E+00
      0.00000000000000E+00   0.00000000000000E+00   3.63774259482960E-04   1.68694898001987E-04   5.32469157484948E-04
     -2.42918940300201E-17
      9.80000000000001E-01
      0.00000000000000E+00   0.00000000000000E+00   0.00000000000000E+00   0.00000000000000E+00  -3.84173485966730E-04
     -1.77084866161116E-04  -5.61258352127845E-04   2.37531487372957E-17   1.96000000000000E+00   1.96000000000000E+00
      0.00000000000000E+00   0.00000000000000E+00   3.83815455749383E-04   1.77442896378461E-04   5.61258352127844E-04
     -2.37531487372955E-17
      1.00000000000000E+00
      0.00000000000000E+00   0.00000000000000E+00   0.00000000000000E+00   0.00000000000000E+00  -4.04123139519277E-04
     -1.85773286362913E-04  -5.89896425882190E-04   2.32486230524162E-17   2.00000000000000E+00   2.00000000000000E+00
      0.00000000000000E+00   0.00000000000000E+00   4.03754886614337E-04   1.86141539267854E-04   5.89896425882192E-04
     -2.32486230524163E-17
}
