DF-ISE text

Info {
  version   = 1.0
  type      = xyplot
  datasets  = [
    "time"
    "Cathode OuterVoltage" "Cathode InnerVoltage" "Cathode QuasiFermiPotential" "Cathode DisplacementCurrent" "Cathode eCurrent"
    "Cathode hCurrent" "Cathode TotalCurrent" "Cathode Charge" "Anode OuterVoltage" "Anode InnerVoltage"
    "Anode QuasiFermiPotential" "Anode DisplacementCurrent" "Anode eCurrent" "Anode hCurrent" "Anode TotalCurrent"
    "Anode Charge" ]
  functions = [
    Time
    OuterVoltage InnerVoltage QuasiFermiPotential DisplacementCurrent eCurrent
    hCurrent TotalCurrent Charge OuterVoltage InnerVoltage
    QuasiFermiPotential DisplacementCurrent eCurrent hCurrent TotalCurrent
    Charge ]
}

Data {
      0.00000000000000E+00
      0.00000000000000E+00   0.00000000000000E+00   0.00000000000000E+00   0.00000000000000E+00  -3.90448828133278E-35
      3.90448828133278E-35   0.00000000000000E+00   8.59509698878497E-48   0.00000000000000E+00   0.00000000000000E+00
      0.00000000000000E+00   0.00000000000000E+00  -4.15694900190912E-35   4.15694900190912E-35   0.00000000000000E+00
     -4.29754849439248E-48
      0.00000000000000E+00
      0.00000000000000E+00   0.00000000000000E+00   0.00000000000000E+00   0.00000000000000E+00  -4.52546021500844E-35
      4.52546021500844E-35   0.00000000000000E+00   8.59509698878497E-48   0.00000000000000E+00   0.00000000000000E+00
      0.00000000000000E+00   0.00000000000000E+00  -4.81864040664547E-35   4.81864040664547E-35   0.00000000000000E+00
     -4.29754849439248E-48
      0.00000000000000E+00
      0.00000000000000E+00   0.00000000000000E+00   0.00000000000000E+00   0.00000000000000E+00  -4.52546021500844E-35
      4.52546021500844E-35   0.00000000000000E+00   8.59509698878497E-48   0.00000000000000E+00   0.00000000000000E+00
      0.00000000000000E+00   0.00000000000000E+00  -4.81864040664547E-35   4.81864040664547E-35   0.00000000000000E+00
     -4.29754849439248E-48
      0.00000000000000E+00
      0.00000000000000E+00   0.00000000000000E+00   0.00000000000000E+00   0.00000000000000E+00  -4.53958478153263E-35
      4.53958478153263E-35   0.00000000000000E+00   8.59509698878497E-48   0.00000000000000E+00   0.00000000000000E+00
      0.00000000000000E+00   0.00000000000000E+00  -4.83276497316965E-35   4.83276497316965E-35   0.00000000000000E+00
     -4.29754849439248E-48
      0.00000000000000E+00
      0.00000000000000E+00   0.00000000000000E+00   0.00000000000000E+00   0.00000000000000E+00  -4.53958478153263E-35
      4.53958478153263E-35   0.00000000000000E+00   8.59509698878497E-48   0.00000000000000E+00   0.00000000000000E+00
      0.00000000000000E+00   0.00000000000000E+00  -4.83276497316965E-35   4.83276497316965E-35   0.00000000000000E+00
     -4.29754849439248E-48
      1.00000000000000E-03
      0.00000000000000E+00   0.00000000000000E+00   0.00000000000000E+00   0.00000000000000E+00   2.27030606400495E-07
      1.67622105757405E-19   2.27030606400662E-07   1.03594139999994E-19  -1.00000000000000E-02  -1.00000000000000E-02
      0.00000000000000E+00   0.00000000000000E+00  -2.27030606400495E-07  -1.67622105757405E-19  -2.27030606400662E-07
     -1.03594139999993E-19
      2.86666666666667E-03
      0.00000000000000E+00   0.00000000000000E+00   0.00000000000000E+00   0.00000000000000E+00   6.50821071681472E-07
      4.80516703171273E-19   6.50821071681953E-07   2.96969868000009E-19  -2.86666666666667E-02  -2.86666666666667E-02
      0.00000000000000E+00   0.00000000000000E+00  -6.50821071681472E-07  -4.80516703171273E-19  -6.50821071681953E-07
     -2.96969868000009E-19
      6.35111111111111E-03
      0.00000000000000E+00   0.00000000000000E+00   0.00000000000000E+00   0.00000000000000E+00   1.44189660687256E-06
      1.06458661834377E-18   1.44189660687362E-06   6.57937893600004E-19  -6.35111111111111E-02  -6.35111111111111E-02
      0.00000000000000E+00   0.00000000000000E+00  -1.44189660687256E-06  -1.06458661834377E-18  -1.44189660687362E-06
     -6.57937893600005E-19
      1.28554074074074E-02
      0.00000000000000E+00   0.00000000000000E+00   0.00000000000000E+00   0.00000000000000E+00   2.91857093922927E-06
      2.15485045999910E-18   2.91857093923142E-06   1.33174487472000E-18  -1.28554074074074E-01  -1.28554074074074E-01
      0.00000000000000E+00   0.00000000000000E+00  -2.91857093922927E-06  -2.15485045999910E-18  -2.91857093923142E-06
     -1.33174487472000E-18
      2.49967604938272E-02
      0.00000000000000E+00   0.00000000000000E+00   0.00000000000000E+00   0.00000000000000E+00   5.67502969296179E-06
      4.19000963108907E-18   5.67502969296598E-06   2.58951790614400E-18  -2.49967604938272E-01  -2.49967604938272E-01
      0.00000000000000E+00   0.00000000000000E+00  -5.67502969296179E-06  -4.19000963108907E-18  -5.67502969296598E-06
     -2.58951790614400E-18
      4.76606195884774E-02
      0.00000000000000E+00   0.00000000000000E+00   0.00000000000000E+00   0.00000000000000E+00   1.08204193665959E-05
      7.98897341712369E-18   1.08204193666038E-05   4.93736089813546E-18  -4.76606195884774E-01  -4.76606195884774E-01
      0.00000000000000E+00   0.00000000000000E+00  -1.08204193665959E-05  -7.98897341712369E-18  -1.08204193666038E-05
     -4.93736089813547E-18
      8.99664898984911E-02
      0.00000000000000E+00   0.00000000000000E+00   0.00000000000000E+00   0.00000000000000E+00   2.04251467573794E-05
      1.50803724843883E-17   2.04251467573945E-05   9.32000114985287E-18  -8.99664898984911E-01  -8.99664898984911E-01
      0.00000000000000E+00   0.00000000000000E+00  -2.04251467573794E-05  -1.50803724843883E-17  -2.04251467573945E-05
     -9.32000114985289E-18
      1.68937447810517E-01
      0.00000000000000E+00   0.00000000000000E+00   0.00000000000000E+00   0.00000000000000E+00   3.83539712201754E-05
      2.83176507432823E-17   3.83539712202037E-05   1.75009296197254E-17  -1.68937447810517E+00  -1.68937447810517E+00
      0.00000000000000E+00   0.00000000000000E+00  -3.83539712201754E-05  -2.83176507432823E-17  -3.83539712202037E-05
     -1.75009296197254E-17
      2.68937447810517E-01
      0.00000000000000E+00   0.00000000000000E+00   0.00000000000000E+00   0.00000000000000E+00   6.10570318602261E-05
      4.50798613190240E-17   6.10570318602712E-05   2.78603436197254E-17  -2.68937447810517E+00  -2.68937447810517E+00
      0.00000000000000E+00   0.00000000000000E+00  -6.10570318602261E-05  -4.50798613190240E-17  -6.10570318602712E-05
     -2.78603436197254E-17
      3.68937447810517E-01
      0.00000000000000E+00   0.00000000000000E+00   0.00000000000000E+00   0.00000000000000E+00   8.37600925002767E-05
      6.18420718947657E-17   8.37600925003385E-05   3.82197576197254E-17  -3.68937447810517E+00  -3.68937447810517E+00
      0.00000000000000E+00   0.00000000000000E+00  -8.37600925002767E-05  -6.18420718947657E-17  -8.37600925003385E-05
     -3.82197576197254E-17
      4.68937447810517E-01
      0.00000000000000E+00   0.00000000000000E+00   0.00000000000000E+00   0.00000000000000E+00   1.06463153140327E-04
      7.86042824705074E-17   1.06463153140406E-04   4.85791716197253E-17  -4.68937447810517E+00  -4.68937447810517E+00
      0.00000000000000E+00   0.00000000000000E+00  -1.06463153140327E-04  -7.86042824705074E-17  -1.06463153140406E-04
     -4.85791716197254E-17
      5.68937447810517E-01
      0.00000000000000E+00   0.00000000000000E+00   0.00000000000000E+00   0.00000000000000E+00   1.29166213780378E-04
      9.53664930462491E-17   1.29166213780473E-04   5.89385856197253E-17  -5.68937447810517E+00  -5.68937447810517E+00
      0.00000000000000E+00   0.00000000000000E+00  -1.29166213780378E-04  -9.53664930462491E-17  -1.29166213780473E-04
     -5.89385856197253E-17
      6.68937447810517E-01
      0.00000000000000E+00   0.00000000000000E+00   0.00000000000000E+00   0.00000000000000E+00   1.51869274420428E-04
      1.12128703621991E-16   1.51869274420541E-04   6.92979996197253E-17  -6.68937447810517E+00  -6.68937447810517E+00
      0.00000000000000E+00   0.00000000000000E+00  -1.51869274420428E-04  -1.12128703621991E-16  -1.51869274420541E-04
     -6.92979996197253E-17
      7.68937447810517E-01
      0.00000000000000E+00   0.00000000000000E+00   0.00000000000000E+00   0.00000000000000E+00   1.74572335060479E-04
      1.28890914197733E-16   1.74572335060608E-04   7.96574136197255E-17  -7.68937447810517E+00  -7.68937447810517E+00
      0.00000000000000E+00   0.00000000000000E+00  -1.74572335060479E-04  -1.28890914197733E-16  -1.74572335060608E-04
     -7.96574136197254E-17
      8.68937447810517E-01
      0.00000000000000E+00   0.00000000000000E+00   0.00000000000000E+00   0.00000000000000E+00   1.97275395700530E-04
      1.45653124773474E-16   1.97275395700675E-04   9.00168276197254E-17  -8.68937447810517E+00  -8.68937447810517E+00
      0.00000000000000E+00   0.00000000000000E+00  -1.97275395700530E-04  -1.45653124773474E-16  -1.97275395700675E-04
     -9.00168276197255E-17
      9.68937447810517E-01
      0.00000000000000E+00   0.00000000000000E+00   0.00000000000000E+00   0.00000000000000E+00   2.19978456340580E-04
      1.62415335349216E-16   2.19978456340743E-04   1.00376241619725E-16  -9.68937447810517E+00  -9.68937447810517E+00
      0.00000000000000E+00   0.00000000000000E+00  -2.19978456340580E-04  -1.62415335349216E-16  -2.19978456340743E-04
     -1.00376241619725E-16
      1.00000000000000E+00
      0.00000000000000E+00   0.00000000000000E+00   0.00000000000000E+00   0.00000000000000E+00   2.27030606400506E-04
      1.67622105757417E-16   2.27030606400674E-04   1.03594140000000E-16  -1.00000000000000E+01  -1.00000000000000E+01
      0.00000000000000E+00   0.00000000000000E+00  -2.27030606400506E-04  -1.67622105757417E-16  -2.27030606400674E-04
     -1.03594140000000E-16
}
