DF-ISE text

Info {
  version   = 1.0
  type      = xyplot
  datasets  = [
    "time"
    "Cathode OuterVoltage" "Cathode InnerVoltage" "Cathode QuasiFermiPotential" "Cathode DisplacementCurrent" "Cathode eCurrent"
    "Cathode hCurrent" "Cathode TotalCurrent" "Cathode Charge" "Anode OuterVoltage" "Anode InnerVoltage"
    "Anode QuasiFermiPotential" "Anode DisplacementCurrent" "Anode eCurrent" "Anode hCurrent" "Anode TotalCurrent"
    "Anode Charge" ]
  functions = [
    Time
    OuterVoltage InnerVoltage QuasiFermiPotential DisplacementCurrent eCurrent
    hCurrent TotalCurrent Charge OuterVoltage InnerVoltage
    QuasiFermiPotential DisplacementCurrent eCurrent hCurrent TotalCurrent
    Charge ]
}

Data {
      0.00000000000000E+00
      0.00000000000000E+00   0.00000000000000E+00   0.00000000000000E+00   0.00000000000000E+00   2.27030606400506E-04
      1.67622105757417E-16   2.27030606400674E-04   1.03594140000000E-16  -1.00000000000000E+01  -1.00000000000000E+01
      0.00000000000000E+00   0.00000000000000E+00  -2.27030606400506E-04  -1.67622105757417E-16  -2.27030606400674E-04
     -1.03594140000000E-16
      1.00000000000000E-03
      0.00000000000000E+00   0.00000000000000E+00   0.00000000000000E+00   0.00000000000000E+00   2.26576545187705E-04
      1.67286861545902E-16   2.26576545187872E-04   1.03386951720000E-16  -9.98000000000000E+00  -9.98000000000000E+00
      0.00000000000000E+00   0.00000000000000E+00  -2.26576545187705E-04  -1.67286861545902E-16  -2.26576545187872E-04
     -1.03386951720000E-16
      2.86666666666667E-03
      0.00000000000000E+00   0.00000000000000E+00   0.00000000000000E+00   0.00000000000000E+00   2.25728964257143E-04
      1.66661072351075E-16   2.25728964257310E-04   1.03000200264000E-16  -9.94266666666667E+00  -9.94266666666667E+00
      0.00000000000000E+00   0.00000000000000E+00  -2.25728964257143E-04  -1.66661072351075E-16  -2.25728964257310E-04
     -1.03000200264000E-16
      6.35111111111111E-03
      0.00000000000000E+00   0.00000000000000E+00   0.00000000000000E+00   0.00000000000000E+00   2.24146813186761E-04
      1.65492932520729E-16   2.24146813186927E-04   1.02278264212800E-16  -9.87297777777778E+00  -9.87297777777778E+00
      0.00000000000000E+00   0.00000000000000E+00  -2.24146813186761E-04  -1.65492932520729E-16  -2.24146813186927E-04
     -1.02278264212800E-16
      1.28554074074074E-02
      0.00000000000000E+00   0.00000000000000E+00   0.00000000000000E+00   0.00000000000000E+00   2.21193464522048E-04
      1.63312404837419E-16   2.21193464522211E-04   1.00930650250560E-16  -9.74289185185185E+00  -9.74289185185185E+00
      0.00000000000000E+00   0.00000000000000E+00  -2.21193464522048E-04  -1.63312404837419E-16  -2.21193464522211E-04
     -1.00930650250560E-16
      2.49967604938272E-02
      0.00000000000000E+00   0.00000000000000E+00   0.00000000000000E+00   0.00000000000000E+00   2.15680547014583E-04
      1.59242086495239E-16   2.15680547014742E-04   9.84151041877121E-17  -9.50006479012346E+00  -9.50006479012346E+00
      0.00000000000000E+00   0.00000000000000E+00  -2.15680547014583E-04  -1.59242086495239E-16  -2.15680547014742E-04
     -9.84151041877121E-17
      4.76606195884774E-02
      0.00000000000000E+00   0.00000000000000E+00   0.00000000000000E+00   0.00000000000000E+00   2.05389767667314E-04
      1.51644158923169E-16   2.05389767667466E-04   9.37194182037290E-17  -9.04678760823045E+00  -9.04678760823045E+00
      0.00000000000000E+00   0.00000000000000E+00  -2.05389767667314E-04  -1.51644158923169E-16  -2.05389767667466E-04
     -9.37194182037291E-17
      8.99664898984911E-02
      0.00000000000000E+00   0.00000000000000E+00   0.00000000000000E+00   0.00000000000000E+00   1.86180312885747E-04
      1.37461360788640E-16   1.86180312885885E-04   8.49541377002943E-17  -8.20067020203018E+00  -8.20067020203018E+00
      0.00000000000000E+00   0.00000000000000E+00  -1.86180312885747E-04  -1.37461360788640E-16  -1.86180312885885E-04
     -8.49541377002943E-17
      1.68937447810517E-01
      0.00000000000000E+00   0.00000000000000E+00   0.00000000000000E+00   0.00000000000000E+00   1.50322663960155E-04
      1.10986804270852E-16   1.50322663960266E-04   6.85922807605492E-17  -6.62125104378967E+00  -6.62125104378967E+00
      0.00000000000000E+00   0.00000000000000E+00  -1.50322663960155E-04  -1.10986804270852E-16  -1.50322663960266E-04
     -6.85922807605493E-17
      2.68937447810517E-01
      0.00000000000000E+00   0.00000000000000E+00   0.00000000000000E+00   0.00000000000000E+00   1.04916542680054E-04
      7.74623831193684E-17   1.04916542680132E-04   4.78734527605494E-17  -4.62125104378966E+00  -4.62125104378966E+00
      0.00000000000000E+00   0.00000000000000E+00  -1.04916542680054E-04  -7.74623831193684E-17  -1.04916542680132E-04
     -4.78734527605493E-17
      3.68937447810517E-01
      0.00000000000000E+00   0.00000000000000E+00   0.00000000000000E+00   0.00000000000000E+00   5.95104213999528E-05
      4.39379619678849E-17   5.95104213999967E-05   2.71546247605493E-17  -2.62125104378967E+00  -2.62125104378967E+00
      0.00000000000000E+00   0.00000000000000E+00  -5.95104213999528E-05  -4.39379619678849E-17  -5.95104213999967E-05
     -2.71546247605493E-17
      4.68937447810517E-01
      0.00000000000000E+00   0.00000000000000E+00   0.00000000000000E+00   0.00000000000000E+00   1.41043001198515E-05
      1.04135408164016E-17   1.41043001198619E-05   6.43579676054928E-18  -6.21251043789666E-01  -6.21251043789666E-01
      0.00000000000000E+00   0.00000000000000E+00  -1.41043001198515E-05  -1.04135408164016E-17  -1.41043001198619E-05
     -6.43579676054928E-18
      5.68937447810517E-01
      0.00000000000000E+00   0.00000000000000E+00   0.00000000000000E+00   0.00000000000000E+00  -3.13018211602497E-05
     -2.31108803350815E-17  -3.13018211602728E-05  -1.42830312394507E-17   1.37874895621033E+00   1.37874895621033E+00
      0.00000000000000E+00   0.00000000000000E+00   3.13018211602497E-05   2.31108803350815E-17   3.13018211602728E-05
      1.42830312394507E-17
      6.68937447810517E-01
      0.00000000000000E+00   0.00000000000000E+00   0.00000000000000E+00   0.00000000000000E+00  -7.67079424403511E-05
     -5.66353014865652E-17  -7.67079424404078E-05  -3.50018592394508E-17   3.37874895621033E+00   3.37874895621033E+00
      0.00000000000000E+00   0.00000000000000E+00   7.67079424403511E-05   5.66353014865652E-17   7.67079424404078E-05
      3.50018592394508E-17
      7.68937447810517E-01
      0.00000000000000E+00   0.00000000000000E+00   0.00000000000000E+00   0.00000000000000E+00  -1.22114063720452E-04
     -9.01597226380487E-17  -1.22114063720542E-04  -5.57206872394508E-17   5.37874895621033E+00   5.37874895621033E+00
      0.00000000000000E+00   0.00000000000000E+00   1.22114063720452E-04   9.01597226380487E-17   1.22114063720542E-04
      5.57206872394507E-17
      8.68937447810517E-01
      0.00000000000000E+00   0.00000000000000E+00   0.00000000000000E+00   0.00000000000000E+00  -1.67520185000553E-04
     -1.23684143789530E-16  -1.67520185000677E-04  -7.64395152394508E-17   7.37874895621033E+00   7.37874895621033E+00
      0.00000000000000E+00   0.00000000000000E+00   1.67520185000553E-04   1.23684143789530E-16   1.67520185000677E-04
      7.64395152394508E-17
      9.68937447810517E-01
      0.00000000000000E+00   0.00000000000000E+00   0.00000000000000E+00   0.00000000000000E+00  -2.12926306280655E-04
     -1.57208564941012E-16  -2.12926306280812E-04  -9.71583432394507E-17   9.37874895621033E+00   9.37874895621033E+00
      0.00000000000000E+00   0.00000000000000E+00   2.12926306280655E-04   1.57208564941012E-16   2.12926306280812E-04
      9.71583432394508E-17
      1.00000000000000E+00
      0.00000000000000E+00   0.00000000000000E+00   0.00000000000000E+00   0.00000000000000E+00  -2.27030606400506E-04
     -1.67622105757414E-16  -2.27030606400674E-04  -1.03594140000000E-16   1.00000000000000E+01   1.00000000000000E+01
      0.00000000000000E+00   0.00000000000000E+00   2.27030606400506E-04   1.67622105757414E-16   2.27030606400674E-04
      1.03594140000000E-16
}
