DF-ISE text

Info {
  version   = 1.0
  type      = xyplot
  datasets  = [
    "time"
    "Cathode OuterVoltage" "Cathode InnerVoltage" "Cathode QuasiFermiPotential" "Cathode DisplacementCurrent" "Cathode eCurrent"
    "Cathode hCurrent" "Cathode TotalCurrent" "Cathode Charge" "Anode OuterVoltage" "Anode InnerVoltage"
    "Anode QuasiFermiPotential" "Anode DisplacementCurrent" "Anode eCurrent" "Anode hCurrent" "Anode TotalCurrent"
    "Anode Charge" ]
  functions = [
    Time
    OuterVoltage InnerVoltage QuasiFermiPotential DisplacementCurrent eCurrent
    hCurrent TotalCurrent Charge OuterVoltage InnerVoltage
    QuasiFermiPotential DisplacementCurrent eCurrent hCurrent TotalCurrent
    Charge ]
}

Data {
      0.00000000000000E+00
      0.00000000000000E+00   0.00000000000000E+00   0.00000000000000E+00   0.00000000000000E+00  -8.96604996914165E-31
     -5.19268402285260E-21  -5.19268402374921E-21   4.66168996374555E-16   0.00000000000000E+00   0.00000000000000E+00
      0.00000000000000E+00   0.00000000000000E+00   1.00220650056909E-30   5.19268402274701E-21   5.19268402374922E-21
     -4.66168996374554E-16
      2.00000000000000E-02
      0.00000000000000E+00   0.00000000000000E+00   0.00000000000000E+00   0.00000000000000E+00  -2.68353848244140E-17
     -2.94363084468717E-18  -2.97790156691011E-17   4.54381986302372E-16   4.00000000000000E-02   4.00000000000000E-02
      0.00000000000000E+00   0.00000000000000E+00   6.84215335571007E-19   2.90948003335302E-17   2.97790156691012E-17
     -4.54381986302373E-16
      4.00000000000000E-02
      0.00000000000000E+00   0.00000000000000E+00   0.00000000000000E+00   0.00000000000000E+00  -9.43432242523788E-17
     -1.73911071730335E-17  -1.11734331425412E-16   4.42294626120635E-16   8.00000000000000E-02   8.00000000000000E-02
      0.00000000000000E+00   0.00000000000000E+00   3.89836131404120E-18   1.07835970111371E-16   1.11734331425412E-16
     -4.42294626120636E-16
      6.00000000000000E-02
      0.00000000000000E+00   0.00000000000000E+00   0.00000000000000E+00   0.00000000000000E+00  -2.53696858857907E-16
     -9.41826441370875E-17  -3.47879502994994E-16   4.29691250277269E-16   1.20000000000000E-01   1.20000000000000E-01
      0.00000000000000E+00   0.00000000000000E+00   1.89972853359275E-17   3.28882217659069E-16   3.47879502994996E-16
     -4.29691250277271E-16
      8.00000000000000E-02
      0.00000000000000E+00   0.00000000000000E+00   0.00000000000000E+00   0.00000000000000E+00  -6.24460966064240E-16
     -4.02955651972453E-16  -1.02741661803669E-15   4.16316823351719E-16   1.60000000000000E-01   1.60000000000000E-01
      0.00000000000000E+00   0.00000000000000E+00   8.99267237619094E-17   9.37489894274784E-16   1.02741661803669E-15
     -4.16316823351720E-16
      1.00000000000000E-01
      0.00000000000000E+00   0.00000000000000E+00   0.00000000000000E+00   0.00000000000000E+00  -1.57036341323525E-15
     -1.89085109332169E-15  -3.46121450655694E-15   4.01979486672721E-16   2.00000000000000E-01   2.00000000000000E-01
      0.00000000000000E+00   0.00000000000000E+00   4.23121717248404E-16   3.03809278930853E-15   3.46121450655694E-15
     -4.01979486672720E-16
      1.20000000000000E-01
      0.00000000000000E+00   0.00000000000000E+00   0.00000000000000E+00   0.00000000000000E+00  -4.42846467522080E-15
     -8.86264961263049E-15  -1.32911142878513E-14   3.86646364455263E-16   2.40000000000000E-01   2.40000000000000E-01
      0.00000000000000E+00   0.00000000000000E+00   1.98829902246165E-15   1.13028152653895E-14   1.32911142878512E-14
     -3.86646364455262E-16
      1.40000000000000E-01
      0.00000000000000E+00   0.00000000000000E+00   0.00000000000000E+00   0.00000000000000E+00  -1.46743867521920E-14
     -4.15255292962356E-14  -5.61999160484275E-14   3.70440178739857E-16   2.80000000000000E-01   2.80000000000000E-01
      0.00000000000000E+00   0.00000000000000E+00   9.34058041614275E-15   4.68593356322847E-14   5.61999160484274E-14
     -3.70440178739857E-16
      1.60000000000000E-01
      0.00000000000000E+00   0.00000000000000E+00   0.00000000000000E+00   0.00000000000000E+00  -5.62422399019488E-14
     -1.94541885775757E-13  -2.50784125677705E-13   3.53559890764448E-16   3.20000000000000E-01   3.20000000000000E-01
      0.00000000000000E+00   0.00000000000000E+00   4.38768344891305E-14   2.06907291188574E-13   2.50784125677705E-13
     -3.53559890764446E-16
      1.80000000000000E-01
      0.00000000000000E+00   0.00000000000000E+00   0.00000000000000E+00   0.00000000000000E+00  -2.37580814270764E-13
     -9.11377420226138E-13  -1.14895823449690E-12   3.36202803046927E-16   3.60000000000000E-01   3.60000000000000E-01
      0.00000000000000E+00   0.00000000000000E+00   2.06103982632073E-13   9.42854251864830E-13   1.14895823449690E-12
     -3.36202803046927E-16
      2.00000000000000E-01
      0.00000000000000E+00   0.00000000000000E+00   0.00000000000000E+00   0.00000000000000E+00  -1.05910903051876E-12
     -4.26919891720997E-12  -5.32830794772874E-12   3.18512719466154E-16   4.00000000000000E-01   4.00000000000000E-01
      0.00000000000000E+00   0.00000000000000E+00   9.68124480226834E-13   4.36018346750187E-12   5.32830794772871E-12
     -3.18512719466154E-16
      2.20000000000000E-01
      0.00000000000000E+00   0.00000000000000E+00   0.00000000000000E+00   0.00000000000000E+00  -4.85044927053561E-12
     -1.99949348432424E-11  -2.48453841137780E-11   3.00537239841442E-16   4.40000000000000E-01   4.40000000000000E-01
      0.00000000000000E+00   0.00000000000000E+00   4.54745001873396E-12   2.02979340950439E-11   2.48453841137779E-11
     -3.00537239841441E-16
      2.40000000000000E-01
      0.00000000000000E+00   0.00000000000000E+00   0.00000000000000E+00   0.00000000000000E+00  -2.25023211635947E-11
     -9.36131783473058E-11  -1.16115499510900E-10   2.82183496494602E-16   4.80000000000000E-01   4.80000000000000E-01
      0.00000000000000E+00   0.00000000000000E+00   2.13592026445385E-11   9.47562968663613E-11   1.16115499510900E-10
     -2.82183496494601E-16
      2.60000000000000E-01
      0.00000000000000E+00   0.00000000000000E+00   0.00000000000000E+00   0.00000000000000E+00  -1.05013112047860E-10
     -4.37883083027204E-10  -5.42896195075064E-10   2.63205328701226E-16   5.20000000000000E-01   5.20000000000000E-01
      0.00000000000000E+00   0.00000000000000E+00   1.00307554360278E-10   4.42588640714786E-10   5.42896195075064E-10
     -2.63205328701226E-16
      2.80000000000000E-01
      0.00000000000000E+00   0.00000000000000E+00   0.00000000000000E+00   0.00000000000000E+00  -4.91027470893042E-10
     -2.04206535810390E-09  -2.53309282899694E-09   2.43296497916013E-16   5.60000000000000E-01   5.60000000000000E-01
      0.00000000000000E+00   0.00000000000000E+00   4.70760620573285E-10   2.06233220842366E-09   2.53309282899695E-09
     -2.43296497916013E-16
      3.00000000000000E-01
      0.00000000000000E+00   0.00000000000000E+00   0.00000000000000E+00   0.00000000000000E+00  -2.28966164918845E-09
     -9.41065412689345E-09  -1.17003157760819E-08   2.22250896781983E-16   6.00000000000000E-01   6.00000000000000E-01
      0.00000000000000E+00   0.00000000000000E+00   2.20309752686428E-09   9.49721824921765E-09   1.17003157760819E-08
     -2.22250896781982E-16
      3.20000000000000E-01
      0.00000000000000E+00   0.00000000000000E+00   0.00000000000000E+00   0.00000000000000E+00  -1.05177586059206E-08
     -4.14185317446665E-08  -5.19362903505872E-08   1.99897533292822E-16   6.40000000000000E-01   6.40000000000000E-01
      0.00000000000000E+00   0.00000000000000E+00   1.01872828401376E-08   4.17490075104495E-08   5.19362903505871E-08
     -1.99897533292822E-16
      3.40000000000000E-01
      0.00000000000000E+00   0.00000000000000E+00   0.00000000000000E+00   0.00000000000000E+00  -4.61543952866667E-08
     -1.59238057319769E-07  -2.05392452606436E-07   1.75821974925485E-16   6.80000000000000E-01   6.80000000000000E-01
      0.00000000000000E+00   0.00000000000000E+00   4.51427379233408E-08   1.60249714683094E-07   2.05392452606435E-07
     -1.75821974925484E-16
      3.60000000000000E-01
      0.00000000000000E+00   0.00000000000000E+00   0.00000000000000E+00   0.00000000000000E+00  -1.81861768750886E-07
     -4.81655460431001E-07  -6.63517229181887E-07   1.50329755620406E-16   7.20000000000000E-01   7.20000000000000E-01
      0.00000000000000E+00   0.00000000000000E+00   1.79235157950557E-07   4.84282071231330E-07   6.63517229181887E-07
     -1.50329755620406E-16
      3.80000000000000E-01
      0.00000000000000E+00   0.00000000000000E+00   0.00000000000000E+00   0.00000000000000E+00  -5.91935315175838E-07
     -1.12271913361901E-06  -1.71465444879485E-06   1.26364715127372E-16   7.60000000000000E-01   7.60000000000000E-01
      0.00000000000000E+00   0.00000000000000E+00   5.85872517546752E-07   1.12878193124810E-06   1.71465444879485E-06
     -1.26364715127372E-16
      4.00000000000000E-01
      0.00000000000000E+00   0.00000000000000E+00   0.00000000000000E+00   0.00000000000000E+00  -1.52346129143217E-06
     -2.12621004318130E-06  -3.64967133461347E-06   1.07062077362987E-16   8.00000000000000E-01   8.00000000000000E-01
      0.00000000000000E+00   0.00000000000000E+00   1.51157168847092E-06   2.13809964614254E-06   3.64967133461346E-06
     -1.07062077362987E-16
      4.20000000000000E-01
      0.00000000000000E+00   0.00000000000000E+00   0.00000000000000E+00   0.00000000000000E+00  -3.17843107719953E-06
     -3.49271606667447E-06  -6.67114714387400E-06   9.26923832270821E-17   8.40000000000000E-01   8.40000000000000E-01
      0.00000000000000E+00   0.00000000000000E+00   3.15863960635750E-06   3.51250753751650E-06   6.67114714387400E-06
     -9.26923832270821E-17
      4.40000000000000E-01
      0.00000000000000E+00   0.00000000000000E+00   0.00000000000000E+00   0.00000000000000E+00  -5.66848183186881E-06
     -5.22117352723783E-06  -1.08896553591066E-05   8.20115592745953E-17   8.80000000000000E-01   8.80000000000000E-01
      0.00000000000000E+00   0.00000000000000E+00   5.63936683926078E-06   5.25028851984586E-06   1.08896553591066E-05
     -8.20115592745953E-17
      4.60000000000000E-01
      0.00000000000000E+00   0.00000000000000E+00   0.00000000000000E+00   0.00000000000000E+00  -9.04888047999972E-06
     -7.31606198420984E-06  -1.63649424642096E-05   7.38381645596419E-17   9.20000000000000E-01   9.20000000000000E-01
      0.00000000000000E+00   0.00000000000000E+00   9.00952182160209E-06   7.35542064260745E-06   1.63649424642095E-05
     -7.38381645596419E-17
      4.80000000000000E-01
      0.00000000000000E+00   0.00000000000000E+00   0.00000000000000E+00   0.00000000000000E+00  -1.33503114169960E-05
     -9.78395552474136E-06  -2.31342669417373E-05   6.73727074016655E-17   9.60000000000000E-01   9.60000000000000E-01
      0.00000000000000E+00   0.00000000000000E+00   1.33000872994915E-05   9.83417964224581E-06   2.31342669417374E-05
     -6.73727074016656E-17
      5.00000000000000E-01
      0.00000000000000E+00   0.00000000000000E+00   0.00000000000000E+00   0.00000000000000E+00  -1.85926291370018E-05
     -1.26312152994690E-05  -3.12238444364708E-05   6.21069496489730E-17   1.00000000000000E+00   1.00000000000000E+00
      0.00000000000000E+00   0.00000000000000E+00   1.85310866551945E-05   1.26927577812762E-05   3.12238444364707E-05
     -6.21069496489731E-17
      5.20000000000000E-01
      0.00000000000000E+00   0.00000000000000E+00   0.00000000000000E+00   0.00000000000000E+00  -2.47895283392323E-05
     -1.58630382598244E-05  -4.06525665990568E-05   5.77140817364545E-17   1.04000000000000E+00   1.04000000000000E+00
      0.00000000000000E+00   0.00000000000000E+00   2.47163135610679E-05   1.59362530379889E-05   4.06525665990568E-05
     -5.77140817364546E-17
      5.40000000000000E-01
      0.00000000000000E+00   0.00000000000000E+00   0.00000000000000E+00   0.00000000000000E+00  -3.19499022664618E-05
     -1.94830499516138E-05  -5.14329522180756E-05   5.39773318479400E-17   1.08000000000000E+00   1.08000000000000E+00
      0.00000000000000E+00   0.00000000000000E+00   3.18647238949182E-05   1.95682283231574E-05   5.14329522180756E-05
     -5.39773318479399E-17
      5.60000000000000E-01
      0.00000000000000E+00   0.00000000000000E+00   0.00000000000000E+00   0.00000000000000E+00  -4.00780691176778E-05
     -2.34930798018209E-05  -6.35711489194987E-05   5.07479630401400E-17   1.12000000000000E+00   1.12000000000000E+00
      0.00000000000000E+00   0.00000000000000E+00   3.99806797086263E-05   2.35904692108723E-05   6.35711489194985E-05
     -5.07479630401398E-17
      5.80000000000000E-01
      0.00000000000000E+00   0.00000000000000E+00   0.00000000000000E+00   0.00000000000000E+00  -4.91736091597864E-05
     -2.78929950804397E-05  -7.70666042402261E-05   4.79206417003199E-17   1.16000000000000E+00   1.16000000000000E+00
      0.00000000000000E+00   0.00000000000000E+00   4.90637955138040E-05   2.80028087264218E-05   7.70666042402258E-05
     -4.79206417003199E-17
      6.00000000000000E-01
      0.00000000000000E+00   0.00000000000000E+00   0.00000000000000E+00   0.00000000000000E+00  -5.92310691387094E-05
     -3.26805544049729E-05  -9.19116235436823E-05   4.54186449595071E-17   1.20000000000000E+00   1.20000000000000E+00
      0.00000000000000E+00   0.00000000000000E+00   5.91086475987172E-05   3.28029759449651E-05   9.19116235436823E-05
     -4.54186449595072E-17
      6.20000000000000E-01
      0.00000000000000E+00   0.00000000000000E+00   0.00000000000000E+00   0.00000000000000E+00  -7.02396295759388E-05
     -3.78512704474079E-05  -1.08090900023347E-04   4.31846976568495E-17   1.24000000000000E+00   1.24000000000000E+00
      0.00000000000000E+00   0.00000000000000E+00   7.01044440230440E-05   3.79864560003031E-05   1.08090900023347E-04
     -4.31846976568496E-17
      6.40000000000000E-01
      0.00000000000000E+00   0.00000000000000E+00   0.00000000000000E+00   0.00000000000000E+00  -8.21827769987957E-05
     -4.33982819018735E-05  -1.25581058900669E-04   4.11751154014413E-17   1.28000000000000E+00   1.28000000000000E+00
      0.00000000000000E+00   0.00000000000000E+00   8.20346983665339E-05   4.35463605341355E-05   1.25581058900669E-04
     -4.11751154014413E-17
      6.60000000000000E-01
      0.00000000000000E+00   0.00000000000000E+00   0.00000000000000E+00   0.00000000000000E+00  -9.50380062694210E-05
     -4.93122392168853E-05  -1.44350245486306E-04   3.93559484956815E-17   1.32000000000000E+00   1.32000000000000E+00
      0.00000000000000E+00   0.00000000000000E+00   9.48769329179621E-05   4.94733125683442E-05   1.44350245486306E-04
     -3.93559484956814E-17
      6.80000000000000E-01
      0.00000000000000E+00   0.00000000000000E+00   0.00000000000000E+00   0.00000000000000E+00  -1.08776574470882E-04
     -5.55812111517031E-05  -1.64357785622586E-04   3.77003733709100E-17   1.36000000000000E+00   1.36000000000000E+00
      0.00000000000000E+00   0.00000000000000E+00   1.08602433032610E-04   5.57553525899761E-05   1.64357785622586E-04
     -3.77003733709099E-17
      7.00000000000000E-01
      0.00000000000000E+00   0.00000000000000E+00   0.00000000000000E+00   0.00000000000000E+00  -1.23363329090901E-04
     -6.21906212009135E-05  -1.85553950291814E-04   3.61868838182647E-17   1.40000000000000E+00   1.40000000000000E+00
      0.00000000000000E+00   0.00000000000000E+00   1.23176075540382E-04   6.23778747514317E-05   1.85553950291814E-04
     -3.61868838182647E-17
      7.20000000000000E-01
      0.00000000000000E+00   0.00000000000000E+00   0.00000000000000E+00   0.00000000000000E+00  -1.38756636274932E-04
     -6.91232246678814E-05  -2.07879860942813E-04   3.47980082206121E-17   1.44000000000000E+00   1.44000000000000E+00
      0.00000000000000E+00   0.00000000000000E+00   1.38556257050669E-04   6.93236038921432E-05   2.07879860942813E-04
     -3.47980082206121E-17
      7.40000000000000E-01
      0.00000000000000E+00   0.00000000000000E+00   0.00000000000000E+00   0.00000000000000E+00  -1.54908437996661E-04
     -7.63591385600270E-05  -2.31267576556688E-04   3.35193808107384E-17   1.48000000000000E+00   1.48000000000000E+00
      0.00000000000000E+00   0.00000000000000E+00   1.54694951040357E-04   7.65726255163311E-05   2.31267576556688E-04
     -3.35193808107384E-17
      7.60000000000000E-01
      0.00000000000000E+00   0.00000000000000E+00   0.00000000000000E+00   0.00000000000000E+00  -1.71764468760370E-04
     -8.38759371862616E-05  -2.55640405946632E-04   3.23390562705200E-17   1.52000000000000E+00   1.52000000000000E+00
      0.00000000000000E+00   0.00000000000000E+00   1.71537924358868E-04   8.41024815877643E-05   2.55640405946632E-04
     -3.23390562705200E-17
      7.80000000000000E-01
      0.00000000000000E+00   0.00000000000000E+00   0.00000000000000E+00   0.00000000000000E+00  -1.89264661446831E-04
     -9.16488258386896E-05  -2.80913487285520E-04   3.12469948809731E-17   1.56000000000000E+00   1.56000000000000E+00
      0.00000000000000E+00   0.00000000000000E+00   1.89025142772474E-04   9.18883445130457E-05   2.80913487285520E-04
     -3.12469948809730E-17
      8.00000000000000E-01
      0.00000000000000E+00   0.00000000000000E+00   0.00000000000000E+00   0.00000000000000E+00  -2.07343766652742E-04
     -9.96509026469500E-05  -3.06994669299692E-04   3.02346694739192E-17   1.60000000000000E+00   1.60000000000000E+00
      0.00000000000000E+00   0.00000000000000E+00   2.07091389906336E-04   9.99032793933557E-05   3.06994669299692E-04
     -3.02346694739192E-17
      8.20000000000000E-01
      0.00000000000000E+00   0.00000000000000E+00   0.00000000000000E+00   0.00000000000000E+00  -2.25932199032802E-04
     -1.07853514072921E-04  -3.33785713105724E-04   2.92947610644105E-17   1.64000000000000E+00   1.64000000000000E+00
      0.00000000000000E+00   0.00000000000000E+00   2.25667113104737E-04   1.08118600000986E-04   3.33785713105723E-04
     -2.92947610644107E-17
      8.40000000000000E-01
      0.00000000000000E+00   0.00000000000000E+00   0.00000000000000E+00   0.00000000000000E+00  -2.44957107120875E-04
     -1.16226702324605E-04  -3.61183809445480E-04   2.84209204268146E-17   1.68000000000000E+00   1.68000000000000E+00
      0.00000000000000E+00   0.00000000000000E+00   2.44679492703805E-04   1.16504316741675E-04   3.61183809445481E-04
     -2.84209204268147E-17
      8.60000000000000E-01
      0.00000000000000E+00   0.00000000000000E+00   0.00000000000000E+00   0.00000000000000E+00  -2.64343640636504E-04
     -1.24739733545664E-04  -3.89083374182168E-04   2.76075798872021E-17   1.72000000000000E+00   1.72000000000000E+00
      0.00000000000000E+00   0.00000000000000E+00   2.64053708749406E-04   1.25029665432764E-04   3.89083374182171E-04
     -2.76075798872022E-17
      8.80000000000000E-01
      0.00000000000000E+00   0.00000000000000E+00   0.00000000000000E+00   0.00000000000000E+00  -2.84016363917557E-04
     -1.33361685060945E-04  -4.17378048978503E-04   2.68498043584653E-17   1.76000000000000E+00   1.76000000000000E+00
      0.00000000000000E+00   0.00000000000000E+00   2.83714353836062E-04   1.33663695142443E-04   4.17378048978504E-04
     -2.68498043584651E-17
      9.00000000000000E-01
      0.00000000000000E+00   0.00000000000000E+00   0.00000000000000E+00   0.00000000000000E+00  -3.03900740306262E-04
     -1.42062060099108E-04  -4.45962800405370E-04   2.61431738225627E-17   1.80000000000000E+00   1.80000000000000E+00
      0.00000000000000E+00   0.00000000000000E+00   3.03586916935370E-04   1.42375883469999E-04   4.45962800405369E-04
     -2.61431738225627E-17
      9.20000000000000E-01
      0.00000000000000E+00   0.00000000000000E+00   0.00000000000000E+00   0.00000000000000E+00  -3.23924595512509E-04
     -1.50811391553842E-04  -4.74735987066351E-04   2.54836915062367E-17   1.84000000000000E+00   1.84000000000000E+00
      0.00000000000000E+00   0.00000000000000E+00   3.23599246280389E-04   1.51136740785963E-04   4.74735987066352E-04
     -2.54836915062367E-17
      9.40000000000001E-01
      0.00000000000000E+00   0.00000000000000E+00   0.00000000000000E+00   0.00000000000000E+00  -3.44019463177660E-04
     -1.59581794547273E-04  -5.03601257724933E-04   2.48677132225141E-17   1.88000000000000E+00   1.88000000000000E+00
      0.00000000000000E+00   0.00000000000000E+00   3.43682894566731E-04   1.59918363158202E-04   5.03601257724933E-04
     -2.48677132225141E-17
      9.60000000000001E-01
      0.00000000000000E+00   0.00000000000000E+00   0.00000000000000E+00   0.00000000000000E+00  -3.64121725624969E-04
     -1.68347431859680E-04  -5.32469157484649E-04   2.42918940300225E-17   1.92000000000000E+00   1.92000000000000E+00
      0.00000000000000E+00   0.00000000000000E+00   3.63774259482756E-04   1.68694898001892E-04   5.32469157484648E-04
     -2.42918940300225E-17
      9.80000000000001E-01
      0.00000000000000E+00   0.00000000000000E+00   0.00000000000000E+00   0.00000000000000E+00  -3.84173485966831E-04
     -1.77084866161156E-04  -5.61258352127988E-04   2.37531487372947E-17   1.96000000000000E+00   1.96000000000000E+00
      0.00000000000000E+00   0.00000000000000E+00   3.83815455749485E-04   1.77442896378501E-04   5.61258352127986E-04
     -2.37531487372945E-17
      1.00000000000000E+00
      0.00000000000000E+00   0.00000000000000E+00   0.00000000000000E+00   0.00000000000000E+00  -4.04123139519273E-04
     -1.85773286362914E-04  -5.89896425882186E-04   2.32486230524162E-17   2.00000000000000E+00   2.00000000000000E+00
      0.00000000000000E+00   0.00000000000000E+00   4.03754886614333E-04   1.86141539267855E-04   5.89896425882187E-04
     -2.32486230524163E-17
}
