DF-ISE text

Info {
  version   = 1.0
  type      = xyplot
  datasets  = [
    "time"
    "Cathode OuterVoltage" "Cathode InnerVoltage" "Cathode QuasiFermiPotential" "Cathode DisplacementCurrent" "Cathode eCurrent"
    "Cathode hCurrent" "Cathode TotalCurrent" "Cathode Charge" "Anode OuterVoltage" "Anode InnerVoltage"
    "Anode QuasiFermiPotential" "Anode DisplacementCurrent" "Anode eCurrent" "Anode hCurrent" "Anode TotalCurrent"
    "Anode Charge" ]
  functions = [
    Time
    OuterVoltage InnerVoltage QuasiFermiPotential DisplacementCurrent eCurrent
    hCurrent TotalCurrent Charge OuterVoltage InnerVoltage
    QuasiFermiPotential DisplacementCurrent eCurrent hCurrent TotalCurrent
    Charge ]
}

Data {
      0.00000000000000E+00
      0.00000000000000E+00   0.00000000000000E+00   0.00000000000000E+00   0.00000000000000E+00   9.61098654153417E-05
      1.12115915908509E-16   9.61098654154538E-05   1.03594140000000E-16  -1.00000000000000E+01  -1.00000000000000E+01
      0.00000000000000E+00   0.00000000000000E+00  -9.61098654153417E-05  -1.12115915908509E-16  -9.61098654154538E-05
     -1.03594140000000E-16
      1.00000000000000E-03
      0.00000000000000E+00   0.00000000000000E+00   0.00000000000000E+00   0.00000000000000E+00   9.60187193816221E-05
      1.11960029626389E-16   9.60187193817341E-05   1.03386951756737E-16  -9.98000000000000E+00  -9.98000000000000E+00
      0.00000000000000E+00   0.00000000000000E+00  -9.60187193816221E-05  -1.11960029626387E-16  -9.60187193817341E-05
     -1.03386951756738E-16
      2.20000000000000E-03
      0.00000000000000E+00   0.00000000000000E+00   0.00000000000000E+00   0.00000000000000E+00   9.59090763859461E-05
      1.11772687701530E-16   9.59090763860579E-05   1.03138325784000E-16  -9.95600000000000E+00  -9.95600000000000E+00
      0.00000000000000E+00   0.00000000000000E+00  -9.59090763859461E-05  -1.11772687701530E-16  -9.59090763860579E-05
     -1.03138325784000E-16
      3.40000000000000E-03
      0.00000000000000E+00   0.00000000000000E+00   0.00000000000000E+00   0.00000000000000E+00   9.57991402960861E-05
      1.11585041602918E-16   9.57991402961977E-05   1.02889699848000E-16  -9.93200000000000E+00  -9.93200000000000E+00
      0.00000000000000E+00   0.00000000000000E+00  -9.57991402960861E-05  -1.11585041602918E-16  -9.57991402961977E-05
     -1.02889699848000E-16
      4.60000000000000E-03
      0.00000000000000E+00   0.00000000000000E+00   0.00000000000000E+00   0.00000000000000E+00   9.56889099761381E-05
      1.11397090694445E-16   9.56889099762495E-05   1.02641073912000E-16  -9.90800000000000E+00  -9.90800000000000E+00
      0.00000000000000E+00   0.00000000000000E+00  -9.56889099761381E-05  -1.11397090694445E-16  -9.56889099762495E-05
     -1.02641073912000E-16
      5.80000000000000E-03
      0.00000000000000E+00   0.00000000000000E+00   0.00000000000000E+00   0.00000000000000E+00   9.55783843009122E-05
      1.11208834366532E-16   9.55783843010234E-05   1.02392447976000E-16  -9.88400000000000E+00  -9.88400000000000E+00
      0.00000000000000E+00   0.00000000000000E+00  -9.55783843009122E-05  -1.11208834366532E-16  -9.55783843010234E-05
     -1.02392447976000E-16
      7.00000000000000E-03
      0.00000000000000E+00   0.00000000000000E+00   0.00000000000000E+00   0.00000000000000E+00   9.54675621397214E-05
      1.11020272008481E-16   9.54675621398325E-05   1.02143822040000E-16  -9.86000000000000E+00  -9.86000000000000E+00
      0.00000000000000E+00   0.00000000000000E+00  -9.54675621397214E-05  -1.11020272008481E-16  -9.54675621398325E-05
     -1.02143822040000E-16
      8.20000000000000E-03
      0.00000000000000E+00   0.00000000000000E+00   0.00000000000000E+00   0.00000000000000E+00   9.53564423563505E-05
      1.10831403008466E-16   9.53564423564613E-05   1.01895196104000E-16  -9.83600000000000E+00  -9.83600000000000E+00
      0.00000000000000E+00   0.00000000000000E+00  -9.53564423563505E-05  -1.10831403008466E-16  -9.53564423564613E-05
     -1.01895196104000E-16
      9.40000000000000E-03
      0.00000000000000E+00   0.00000000000000E+00   0.00000000000000E+00   0.00000000000000E+00   9.52450238090221E-05
      1.10642226753540E-16   9.52450238091327E-05   1.01646570168000E-16  -9.81200000000000E+00  -9.81200000000000E+00
      0.00000000000000E+00   0.00000000000000E+00  -9.52450238090221E-05  -1.10642226753540E-16  -9.52450238091327E-05
     -1.01646570168000E-16
      1.06000000000000E-02
      0.00000000000000E+00   0.00000000000000E+00   0.00000000000000E+00   0.00000000000000E+00   9.51333053503657E-05
      1.10452742629634E-16   9.51333053504761E-05   1.01397944232000E-16  -9.78800000000000E+00  -9.78800000000000E+00
      0.00000000000000E+00   0.00000000000000E+00  -9.51333053503657E-05  -1.10452742629634E-16  -9.51333053504761E-05
     -1.01397944232000E-16
      1.18000000000000E-02
      0.00000000000000E+00   0.00000000000000E+00   0.00000000000000E+00   0.00000000000000E+00   9.50212858273842E-05
      1.10262950021555E-16   9.50212858274944E-05   1.01149318296000E-16  -9.76400000000000E+00  -9.76400000000000E+00
      0.00000000000000E+00   0.00000000000000E+00  -9.50212858273842E-05  -1.10262950021555E-16  -9.50212858274944E-05
     -1.01149318296000E-16
      1.30000000000000E-02
      0.00000000000000E+00   0.00000000000000E+00   0.00000000000000E+00   0.00000000000000E+00   9.49089640814212E-05
      1.10072848312991E-16   9.49089640815313E-05   1.00900692360000E-16  -9.74000000000000E+00  -9.74000000000000E+00
      0.00000000000000E+00   0.00000000000000E+00  -9.49089640814212E-05  -1.10072848312991E-16  -9.49089640815313E-05
     -1.00900692360000E-16
      1.42000000000000E-02
      0.00000000000000E+00   0.00000000000000E+00   0.00000000000000E+00   0.00000000000000E+00   9.47963389481285E-05
      1.09882436886510E-16   9.47963389482384E-05   1.00652066424000E-16  -9.71600000000000E+00  -9.71600000000000E+00
      0.00000000000000E+00   0.00000000000000E+00  -9.47963389481285E-05  -1.09882436886510E-16  -9.47963389482384E-05
     -1.00652066424000E-16
      1.54000000000000E-02
      0.00000000000000E+00   0.00000000000000E+00   0.00000000000000E+00   0.00000000000000E+00   9.46834092574323E-05
      1.09691715123559E-16   9.46834092575419E-05   1.00403440488000E-16  -9.69200000000000E+00  -9.69200000000000E+00
      0.00000000000000E+00   0.00000000000000E+00  -9.46834092574323E-05  -1.09691715123559E-16  -9.46834092575419E-05
     -1.00403440488000E-16
      1.66000000000000E-02
      0.00000000000000E+00   0.00000000000000E+00   0.00000000000000E+00   0.00000000000000E+00   9.45701738334992E-05
      1.09500682404469E-16   9.45701738336087E-05   1.00154814552000E-16  -9.66800000000000E+00  -9.66800000000000E+00
      0.00000000000000E+00   0.00000000000000E+00  -9.45701738334992E-05  -1.09500682404469E-16  -9.45701738336087E-05
     -1.00154814552000E-16
      1.78000000000000E-02
      0.00000000000000E+00   0.00000000000000E+00   0.00000000000000E+00   0.00000000000000E+00   9.44566314947036E-05
      1.09309338108449E-16   9.44566314948130E-05   9.99061886159999E-17  -9.64400000000000E+00  -9.64400000000000E+00
      0.00000000000000E+00   0.00000000000000E+00  -9.44566314947036E-05  -1.09309338108449E-16  -9.44566314948130E-05
     -9.99061886160000E-17
      1.90000000000000E-02
      0.00000000000000E+00   0.00000000000000E+00   0.00000000000000E+00   0.00000000000000E+00   9.43427810535931E-05
      1.09117681613597E-16   9.43427810537022E-05   9.96575626800001E-17  -9.62000000000000E+00  -9.62000000000000E+00
      0.00000000000000E+00   0.00000000000000E+00  -9.43427810535931E-05  -1.09117681613597E-16  -9.43427810537022E-05
     -9.96575626800002E-17
      2.02000000000000E-02
      0.00000000000000E+00   0.00000000000000E+00   0.00000000000000E+00   0.00000000000000E+00   9.42286213168538E-05
      1.08925712296891E-16   9.42286213169627E-05   9.94089367439999E-17  -9.59600000000000E+00  -9.59600000000000E+00
      0.00000000000000E+00   0.00000000000000E+00  -9.42286213168538E-05  -1.08925712296891E-16  -9.42286213169627E-05
     -9.94089367439998E-17
      2.14000000000000E-02
      0.00000000000000E+00   0.00000000000000E+00   0.00000000000000E+00   0.00000000000000E+00   9.41141510852773E-05
      1.08733429534197E-16   9.41141510853860E-05   9.91603108079999E-17  -9.57200000000000E+00  -9.57200000000000E+00
      0.00000000000000E+00   0.00000000000000E+00  -9.41141510852773E-05  -1.08733429534197E-16  -9.41141510853860E-05
     -9.91603108080000E-17
      2.26000000000000E-02
      0.00000000000000E+00   0.00000000000000E+00   0.00000000000000E+00   0.00000000000000E+00   9.39993691537248E-05
      1.08540832700265E-16   9.39993691538333E-05   9.89116848720001E-17  -9.54800000000000E+00  -9.54800000000000E+00
      0.00000000000000E+00   0.00000000000000E+00  -9.39993691537248E-05  -1.08540832700265E-16  -9.39993691538333E-05
     -9.89116848720003E-17
      2.38000000000000E-02
      0.00000000000000E+00   0.00000000000000E+00   0.00000000000000E+00   0.00000000000000E+00   9.38842743110925E-05
      1.08347921168734E-16   9.38842743112008E-05   9.86630589360001E-17  -9.52400000000000E+00  -9.52400000000000E+00
      0.00000000000000E+00   0.00000000000000E+00  -9.38842743110925E-05  -1.08347921168734E-16  -9.38842743112008E-05
     -9.86630589360003E-17
      2.50000000000000E-02
      0.00000000000000E+00   0.00000000000000E+00   0.00000000000000E+00   0.00000000000000E+00   9.37688653402771E-05
      1.08154694312132E-16   9.37688653403852E-05   9.84144329999998E-17  -9.50000000000000E+00  -9.50000000000000E+00
      0.00000000000000E+00   0.00000000000000E+00  -9.37688653402771E-05  -1.08154694312132E-16  -9.37688653403852E-05
     -9.84144330000000E-17
      2.62000000000000E-02
      0.00000000000000E+00   0.00000000000000E+00   0.00000000000000E+00   0.00000000000000E+00   9.36531410181402E-05
      1.07961151501876E-16   9.36531410182482E-05   9.81658070640001E-17  -9.47600000000000E+00  -9.47600000000000E+00
      0.00000000000000E+00   0.00000000000000E+00  -9.36531410181402E-05  -1.07961151501876E-16  -9.36531410182482E-05
     -9.81658070640002E-17
      2.74000000000000E-02
      0.00000000000000E+00   0.00000000000000E+00   0.00000000000000E+00   0.00000000000000E+00   9.35371001154722E-05
      1.07767292108275E-16   9.35371001155799E-05   9.79171811280002E-17  -9.45200000000000E+00  -9.45200000000000E+00
      0.00000000000000E+00   0.00000000000000E+00  -9.35371001154722E-05  -1.07767292108275E-16  -9.35371001155799E-05
     -9.79171811280002E-17
      2.86000000000000E-02
      0.00000000000000E+00   0.00000000000000E+00   0.00000000000000E+00   0.00000000000000E+00   9.34207413969572E-05
      1.07573115500531E-16   9.34207413970648E-05   9.76685551920001E-17  -9.42800000000000E+00  -9.42800000000000E+00
      0.00000000000000E+00   0.00000000000000E+00  -9.34207413969572E-05  -1.07573115500531E-16  -9.34207413970648E-05
     -9.76685551920002E-17
      2.98000000000000E-02
      0.00000000000000E+00   0.00000000000000E+00   0.00000000000000E+00   0.00000000000000E+00   9.33040636211367E-05
      1.07378621046735E-16   9.33040636212441E-05   9.74199292560001E-17  -9.40400000000000E+00  -9.40400000000000E+00
      0.00000000000000E+00   0.00000000000000E+00  -9.33040636211367E-05  -1.07378621046735E-16  -9.33040636212441E-05
     -9.74199292560003E-17
      3.10000000000000E-02
      0.00000000000000E+00   0.00000000000000E+00   0.00000000000000E+00   0.00000000000000E+00   9.31870655403735E-05
      1.07183808113881E-16   9.31870655404807E-05   9.71713033200001E-17  -9.38000000000000E+00  -9.38000000000000E+00
      0.00000000000000E+00   0.00000000000000E+00  -9.31870655403735E-05  -1.07183808113881E-16  -9.31870655404807E-05
     -9.71713033200003E-17
      3.22000000000000E-02
      0.00000000000000E+00   0.00000000000000E+00   0.00000000000000E+00   0.00000000000000E+00   9.30697459008149E-05
      1.06988676067853E-16   9.30697459009219E-05   9.69226773840001E-17  -9.35600000000000E+00  -9.35600000000000E+00
      0.00000000000000E+00   0.00000000000000E+00  -9.30697459008149E-05  -1.06988676067853E-16  -9.30697459009219E-05
     -9.69226773840002E-17
      3.34000000000000E-02
      0.00000000000000E+00   0.00000000000000E+00   0.00000000000000E+00   0.00000000000000E+00   9.29521034423564E-05
      1.06793224273436E-16   9.29521034424632E-05   9.66740514480000E-17  -9.33200000000000E+00  -9.33200000000000E+00
      0.00000000000000E+00   0.00000000000000E+00  -9.29521034423564E-05  -1.06793224273436E-16  -9.29521034424632E-05
     -9.66740514479999E-17
      3.46000000000000E-02
      0.00000000000000E+00   0.00000000000000E+00   0.00000000000000E+00   0.00000000000000E+00   9.28341368986041E-05
      1.06597452094314E-16   9.28341368987108E-05   9.64254255120000E-17  -9.30800000000000E+00  -9.30800000000000E+00
      0.00000000000000E+00   0.00000000000000E+00  -9.28341368986041E-05  -1.06597452094314E-16  -9.28341368987108E-05
     -9.64254255119999E-17
      3.58000000000000E-02
      0.00000000000000E+00   0.00000000000000E+00   0.00000000000000E+00   0.00000000000000E+00   9.27158449968383E-05
      1.06401358893071E-16   9.27158449969447E-05   9.61767995760000E-17  -9.28400000000000E+00  -9.28400000000000E+00
      0.00000000000000E+00   0.00000000000000E+00  -9.27158449968383E-05  -1.06401358893071E-16  -9.27158449969447E-05
     -9.61767995760003E-17
      3.70000000000000E-02
      0.00000000000000E+00   0.00000000000000E+00   0.00000000000000E+00   0.00000000000000E+00   9.25972264579754E-05
      1.06204944031196E-16   9.25972264580816E-05   9.59281736400000E-17  -9.26000000000000E+00  -9.26000000000000E+00
      0.00000000000000E+00   0.00000000000000E+00  -9.25972264579754E-05  -1.06204944031196E-16  -9.25972264580816E-05
     -9.59281736400002E-17
      3.82000000000000E-02
      0.00000000000000E+00   0.00000000000000E+00   0.00000000000000E+00   0.00000000000000E+00   9.24782799965300E-05
      1.06008206869080E-16   9.24782799966360E-05   9.56795477039998E-17  -9.23600000000000E+00  -9.23600000000000E+00
      0.00000000000000E+00   0.00000000000000E+00  -9.24782799965300E-05  -1.06008206869080E-16  -9.24782799966360E-05
     -9.56795477039999E-17
      3.94000000000000E-02
      0.00000000000000E+00   0.00000000000000E+00   0.00000000000000E+00   0.00000000000000E+00   9.23590043205780E-05
      1.05811146766022E-16   9.23590043206838E-05   9.54309217680000E-17  -9.21200000000000E+00  -9.21200000000000E+00
      0.00000000000000E+00   0.00000000000000E+00  -9.23590043205780E-05  -1.05811146766022E-16  -9.23590043206838E-05
     -9.54309217679998E-17
      4.06000000000000E-02
      0.00000000000000E+00   0.00000000000000E+00   0.00000000000000E+00   0.00000000000000E+00   9.22393981979195E-05
      1.05613763189418E-16   9.22393981980251E-05   9.51822959694247E-17  -9.18800000000000E+00  -9.18800000000000E+00
      0.00000000000000E+00   0.00000000000000E+00  -9.22393981979195E-05  -1.05613763189428E-16  -9.22393981980251E-05
     -9.51822959694247E-17
      4.18000000000000E-02
      0.00000000000000E+00   0.00000000000000E+00   0.00000000000000E+00   0.00000000000000E+00   9.21194601252918E-05
      1.05416055169245E-16   9.21194601253973E-05   9.49336698965434E-17  -9.16400000000000E+00  -9.16400000000000E+00
      0.00000000000000E+00   0.00000000000000E+00  -9.21194601252918E-05  -1.05416055169245E-16  -9.21194601253973E-05
     -9.49336698965433E-17
      4.30000000000000E-02
      0.00000000000000E+00   0.00000000000000E+00   0.00000000000000E+00   0.00000000000000E+00   9.19991889892926E-05
      1.05218022388218E-16   9.19991889893978E-05   9.46850439605181E-17  -9.14000000000000E+00  -9.14000000000000E+00
      0.00000000000000E+00   0.00000000000000E+00  -9.19991889892926E-05  -1.05218022388218E-16  -9.19991889893978E-05
     -9.46850439605182E-17
      4.42000000000000E-02
      0.00000000000000E+00   0.00000000000000E+00   0.00000000000000E+00   0.00000000000000E+00   9.18785834059286E-05
      1.05019664092541E-16   9.18785834060336E-05   9.44364180244968E-17  -9.11600000000000E+00  -9.11600000000000E+00
      0.00000000000000E+00   0.00000000000000E+00  -9.18785834059286E-05  -1.05019664092541E-16  -9.18785834060336E-05
     -9.44364180244969E-17
      4.54000000000000E-02
      0.00000000000000E+00   0.00000000000000E+00   0.00000000000000E+00   0.00000000000000E+00   9.17576420504999E-05
      1.04820979636070E-16   9.17576420506047E-05   9.41877920884791E-17  -9.09200000000000E+00  -9.09200000000000E+00
      0.00000000000000E+00   0.00000000000000E+00  -9.17576420504999E-05  -1.04820979636070E-16  -9.17576420506047E-05
     -9.41877920884791E-17
      4.66000000000000E-02
      0.00000000000000E+00   0.00000000000000E+00   0.00000000000000E+00   0.00000000000000E+00   9.16363635916342E-05
      1.04621968371580E-16   9.16363635917388E-05   9.39391661524646E-17  -9.06800000000000E+00  -9.06800000000000E+00
      0.00000000000000E+00   0.00000000000000E+00  -9.16363635916342E-05  -1.04621968371580E-16  -9.16363635917388E-05
     -9.39391661524647E-17
      4.78000000000000E-02
      0.00000000000000E+00   0.00000000000000E+00   0.00000000000000E+00   0.00000000000000E+00   9.15147466912468E-05
      1.04422629650762E-16   9.15147466913512E-05   9.36905402164532E-17  -9.04400000000000E+00  -9.04400000000000E+00
      0.00000000000000E+00   0.00000000000000E+00  -9.15147466912468E-05  -1.04422629650762E-16  -9.15147466913512E-05
     -9.36905402164534E-17
      4.90000000000000E-02
      0.00000000000000E+00   0.00000000000000E+00   0.00000000000000E+00   0.00000000000000E+00   9.13927900045006E-05
      1.04222962824232E-16   9.13927900046048E-05   9.34419142804442E-17  -9.02000000000000E+00  -9.02000000000000E+00
      0.00000000000000E+00   0.00000000000000E+00  -9.13927900045006E-05  -1.04222962824232E-16  -9.13927900046048E-05
     -9.34419142804441E-17
      5.02000000000000E-02
      0.00000000000000E+00   0.00000000000000E+00   0.00000000000000E+00   0.00000000000000E+00   9.12704921797664E-05
      1.04022967241529E-16   9.12704921798705E-05   9.31932883444379E-17  -8.99600000000000E+00  -8.99600000000000E+00
      0.00000000000000E+00   0.00000000000000E+00  -9.12704921797664E-05  -1.04022967241529E-16  -9.12704921798705E-05
     -9.31932883444378E-17
      5.14000000000000E-02
      0.00000000000000E+00   0.00000000000000E+00   0.00000000000000E+00   0.00000000000000E+00   9.11478519150339E-05
      1.03822642343274E-16   9.11478519151377E-05   9.29446625227183E-17  -8.97200000000000E+00  -8.97200000000000E+00
      0.00000000000000E+00   0.00000000000000E+00  -9.11478519150339E-05  -1.03822642343280E-16  -9.11478519151377E-05
     -9.29446625227182E-17
      5.26000000000000E-02
      0.00000000000000E+00   0.00000000000000E+00   0.00000000000000E+00   0.00000000000000E+00   9.10248677326238E-05
      1.03621987293355E-16   9.10248677327275E-05   9.26960365875306E-17  -8.94800000000000E+00  -8.94800000000000E+00
      0.00000000000000E+00   0.00000000000000E+00  -9.10248677326238E-05  -1.03621987293365E-16  -9.10248677327275E-05
     -9.26960365875304E-17
      5.38000000000000E-02
      0.00000000000000E+00   0.00000000000000E+00   0.00000000000000E+00   0.00000000000000E+00   9.09015383164721E-05
      1.03421001529927E-16   9.09015383165755E-05   9.24474106529367E-17  -8.92400000000000E+00  -8.92400000000000E+00
      0.00000000000000E+00   0.00000000000000E+00  -9.09015383164721E-05  -1.03421001529938E-16  -9.09015383165755E-05
     -9.24474106529366E-17
      5.50000000000000E-02
      0.00000000000000E+00   0.00000000000000E+00   0.00000000000000E+00   0.00000000000000E+00   9.07778622873718E-05
      1.03219684398245E-16   9.07778622874750E-05   9.21987847189333E-17  -8.90000000000000E+00  -8.90000000000000E+00
      0.00000000000000E+00   0.00000000000000E+00  -9.07778622873718E-05  -1.03219684398256E-16  -9.07778622874750E-05
     -9.21987847189334E-17
      5.62000000000000E-02
      0.00000000000000E+00   0.00000000000000E+00   0.00000000000000E+00   0.00000000000000E+00   9.06538382591194E-05
      1.03018035242505E-16   9.06538382592225E-05   9.19501587855198E-17  -8.87600000000000E+00  -8.87600000000000E+00
      0.00000000000000E+00   0.00000000000000E+00  -9.06538382591194E-05  -1.03018035242516E-16  -9.06538382592225E-05
     -9.19501587855197E-17
      5.74000000000000E-02
      0.00000000000000E+00   0.00000000000000E+00   0.00000000000000E+00   0.00000000000000E+00   9.05294648384727E-05
      1.02816053405842E-16   9.05294648385755E-05   9.17015328526976E-17  -8.85200000000000E+00  -8.85200000000000E+00
      0.00000000000000E+00   0.00000000000000E+00  -9.05294648384727E-05  -1.02816053405853E-16  -9.05294648385755E-05
     -9.17015328526976E-17
      5.86000000000000E-02
      0.00000000000000E+00   0.00000000000000E+00   0.00000000000000E+00   0.00000000000000E+00   9.04047406251076E-05
      1.02613738230334E-16   9.04047406252102E-05   9.14529069204696E-17  -8.82800000000000E+00  -8.82800000000000E+00
      0.00000000000000E+00   0.00000000000000E+00  -9.04047406251076E-05  -1.02613738230345E-16  -9.04047406252102E-05
     -9.14529069204697E-17
      5.98000000000000E-02
      0.00000000000000E+00   0.00000000000000E+00   0.00000000000000E+00   0.00000000000000E+00   9.02796642116276E-05
      1.02411089057083E-16   9.02796642117300E-05   9.12042809889410E-17  -8.80400000000000E+00  -8.80400000000000E+00
      0.00000000000000E+00   0.00000000000000E+00  -9.02796642116276E-05  -1.02411089057095E-16  -9.02796642117300E-05
     -9.12042809889411E-17
      6.10000000000000E-02
      0.00000000000000E+00   0.00000000000000E+00   0.00000000000000E+00   0.00000000000000E+00   9.01542341834993E-05
      1.02208105226191E-16   9.01542341836016E-05   9.09556550582768E-17  -8.78000000000000E+00  -8.78000000000000E+00
      0.00000000000000E+00   0.00000000000000E+00  -9.01542341834993E-05  -1.02208105226204E-16  -9.01542341836016E-05
     -9.09556550582769E-17
      6.22000000000000E-02
      0.00000000000000E+00   0.00000000000000E+00   0.00000000000000E+00   0.00000000000000E+00   9.00284491188737E-05
      1.02004786076535E-16   9.00284491189757E-05   9.07070291284312E-17  -8.75600000000000E+00  -8.75600000000000E+00
      0.00000000000000E+00   0.00000000000000E+00  -9.00284491188737E-05  -1.02004786076549E-16  -9.00284491189757E-05
     -9.07070291284309E-17
      6.34000000000000E-02
      0.00000000000000E+00   0.00000000000000E+00   0.00000000000000E+00   0.00000000000000E+00   8.99023075886964E-05
      1.01801130946022E-16   8.99023075887982E-05   9.04584031994549E-17  -8.73200000000000E+00  -8.73200000000000E+00
      0.00000000000000E+00   0.00000000000000E+00  -8.99023075886964E-05  -1.01801130946039E-16  -8.99023075887982E-05
     -9.04584031994548E-17
      6.46000000000000E-02
      0.00000000000000E+00   0.00000000000000E+00   0.00000000000000E+00   0.00000000000000E+00   8.97758081563654E-05
      1.01597139171111E-16   8.97758081564670E-05   9.02097772709057E-17  -8.70800000000000E+00  -8.70800000000000E+00
      0.00000000000000E+00   0.00000000000000E+00  -8.97758081563654E-05  -1.01597139171134E-16  -8.97758081564670E-05
     -9.02097772709057E-17
      6.58000000000000E-02
      0.00000000000000E+00   0.00000000000000E+00   0.00000000000000E+00   0.00000000000000E+00   8.96489492929403E-05
      1.01392809950399E-16   8.96489492930417E-05   8.99611511760002E-17  -8.68400000000000E+00  -8.68400000000000E+00
      0.00000000000000E+00   0.00000000000000E+00  -8.96489492929403E-05  -1.01392809950399E-16  -8.96489492930417E-05
     -8.99611511760002E-17
      6.70000000000000E-02
      0.00000000000000E+00   0.00000000000000E+00   0.00000000000000E+00   0.00000000000000E+00   8.95217298071607E-05
      1.01188143036895E-16   8.95217298072619E-05   8.97125254232531E-17  -8.66000000000000E+00  -8.66000000000000E+00
      0.00000000000000E+00   0.00000000000000E+00  -8.95217298071607E-05  -1.01188143036896E-16  -8.95217298072619E-05
     -8.97125254232532E-17
      6.82000000000000E-02
      0.00000000000000E+00   0.00000000000000E+00   0.00000000000000E+00   0.00000000000000E+00   8.93941479600031E-05
      1.00983137312862E-16   8.93941479601041E-05   8.94638994639302E-17  -8.63600000000000E+00  -8.63600000000000E+00
      0.00000000000000E+00   0.00000000000000E+00  -8.93941479600031E-05  -1.00983137312857E-16  -8.93941479601041E-05
     -8.94638994639299E-17
      6.94000000000000E-02
      0.00000000000000E+00   0.00000000000000E+00   0.00000000000000E+00   0.00000000000000E+00   8.92662023915599E-05
      1.00777792281763E-16   8.92662023916607E-05   8.92152735056773E-17  -8.61200000000000E+00  -8.61200000000000E+00
      0.00000000000000E+00   0.00000000000000E+00  -8.92662023915599E-05  -1.00777792281754E-16  -8.92662023916607E-05
     -8.92152735056773E-17
      7.06000000000000E-02
      0.00000000000000E+00   0.00000000000000E+00   0.00000000000000E+00   0.00000000000000E+00   8.91378916286708E-05
      1.00572107275829E-16   8.91378916287714E-05   8.89666475492036E-17  -8.58800000000000E+00  -8.58800000000000E+00
      0.00000000000000E+00   0.00000000000000E+00  -8.91378916286708E-05  -1.00572107275817E-16  -8.91378916287714E-05
     -8.89666475492034E-17
      7.18000000000000E-02
      0.00000000000000E+00   0.00000000000000E+00   0.00000000000000E+00   0.00000000000000E+00   8.90092141903807E-05
      1.00366081625893E-16   8.90092141904811E-05   8.87180215947657E-17  -8.56400000000000E+00  -8.56400000000000E+00
      0.00000000000000E+00   0.00000000000000E+00  -8.90092141903807E-05  -1.00366081625879E-16  -8.90092141904811E-05
     -8.87180215947657E-17
      7.30000000000000E-02
      0.00000000000000E+00   0.00000000000000E+00   0.00000000000000E+00   0.00000000000000E+00   8.88801685880265E-05
      1.00159714661605E-16   8.88801685881267E-05   8.84693956424303E-17  -8.54000000000000E+00  -8.54000000000000E+00
      0.00000000000000E+00   0.00000000000000E+00  -8.88801685880265E-05  -1.00159714661592E-16  -8.88801685881267E-05
     -8.84693956424304E-17
      7.42000000000000E-02
      0.00000000000000E+00   0.00000000000000E+00   0.00000000000000E+00   0.00000000000000E+00   8.87507533252326E-05
      9.99530057115121E-17   8.87507533253325E-05   8.82207696921556E-17  -8.51600000000000E+00  -8.51600000000000E+00
      0.00000000000000E+00   0.00000000000000E+00  -8.87507533252326E-05  -9.99530057115002E-17  -8.87507533253325E-05
     -8.82207696921555E-17
      7.54000000000001E-02
      0.00000000000000E+00   0.00000000000000E+00   0.00000000000000E+00   0.00000000000000E+00   8.86209668978875E-05
      9.97459541030881E-17   8.86209668979872E-05   8.79721437438372E-17  -8.49200000000000E+00  -8.49200000000000E+00
      0.00000000000000E+00   0.00000000000000E+00  -8.86209668978875E-05  -9.97459541030794E-17  -8.86209668979872E-05
     -8.79721437438370E-17
      7.66000000000001E-02
      0.00000000000000E+00   0.00000000000000E+00   0.00000000000000E+00   0.00000000000000E+00   8.84908077941093E-05
      9.95385591627637E-17   8.84908077942088E-05   8.77235177973309E-17  -8.46800000000000E+00  -8.46800000000000E+00
      0.00000000000000E+00   0.00000000000000E+00  -8.84908077941093E-05  -9.95385591627609E-17  -8.84908077942088E-05
     -8.77235177973310E-17
      7.78000000000001E-02
      0.00000000000000E+00   0.00000000000000E+00   0.00000000000000E+00   0.00000000000000E+00   8.83602744942070E-05
      9.93308202159398E-17   8.83602744943063E-05   8.74748918524697E-17  -8.44400000000000E+00  -8.44400000000000E+00
      0.00000000000000E+00   0.00000000000000E+00  -8.83602744942070E-05  -9.93308202159453E-17  -8.83602744943063E-05
     -8.74748918524698E-17
      7.90000000000001E-02
      0.00000000000000E+00   0.00000000000000E+00   0.00000000000000E+00   0.00000000000000E+00   8.82293654553466E-05
      9.91227365627099E-17   8.82293654554457E-05   8.72262658800729E-17  -8.42000000000000E+00  -8.42000000000000E+00
      0.00000000000000E+00   0.00000000000000E+00  -8.82293654553466E-05  -9.91227365627099E-17  -8.82293654554457E-05
     -8.72262658800731E-17
      8.02000000000001E-02
      0.00000000000000E+00   0.00000000000000E+00   0.00000000000000E+00   0.00000000000000E+00   8.80980791758564E-05
      9.89143075801136E-17   8.80980791759553E-05   8.69776399440572E-17  -8.39600000000000E+00  -8.39600000000000E+00
      0.00000000000000E+00   0.00000000000000E+00  -8.80980791758564E-05  -9.89143075801136E-17  -8.80980791759553E-05
     -8.69776399440572E-17
      8.14000000000001E-02
      0.00000000000000E+00   0.00000000000000E+00   0.00000000000000E+00   0.00000000000000E+00   8.79664140933258E-05
      9.87055325602619E-17   8.79664140934245E-05   8.67290140080440E-17  -8.37200000000000E+00  -8.37200000000000E+00
      0.00000000000000E+00   0.00000000000000E+00  -8.79664140933258E-05  -9.87055325602619E-17  -8.79664140934245E-05
     -8.67290140080441E-17
      8.26000000000001E-02
      0.00000000000000E+00   0.00000000000000E+00   0.00000000000000E+00   0.00000000000000E+00   8.78343686564838E-05
      9.84964108246924E-17   8.78343686565823E-05   8.64803880720338E-17  -8.34800000000000E+00  -8.34800000000000E+00
      0.00000000000000E+00   0.00000000000000E+00  -8.78343686564838E-05  -9.84964108246924E-17  -8.78343686565823E-05
     -8.64803880720337E-17
      8.38000000000001E-02
      0.00000000000000E+00   0.00000000000000E+00   0.00000000000000E+00   0.00000000000000E+00   8.77019413060238E-05
      9.82869416939541E-17   8.77019413061221E-05   8.62317621360254E-17  -8.32400000000000E+00  -8.32400000000000E+00
      0.00000000000000E+00   0.00000000000000E+00  -8.77019413060238E-05  -9.82869416939541E-17  -8.77019413061221E-05
     -8.62317621360254E-17
      8.50000000000001E-02