DF-ISE text

Info {
  version   = 1.0
  type      = xyplot
  datasets  = [
    "time"
    "Cathode OuterVoltage" "Cathode InnerVoltage" "Cathode QuasiFermiPotential" "Cathode DisplacementCurrent" "Cathode eCurrent"
    "Cathode hCurrent" "Cathode TotalCurrent" "Cathode Charge" "Anode OuterVoltage" "Anode InnerVoltage"
    "Anode QuasiFermiPotential" "Anode DisplacementCurrent" "Anode eCurrent" "Anode hCurrent" "Anode TotalCurrent"
    "Anode Charge" ]
  functions = [
    Time
    OuterVoltage InnerVoltage QuasiFermiPotential DisplacementCurrent eCurrent
    hCurrent TotalCurrent Charge OuterVoltage InnerVoltage
    QuasiFermiPotential DisplacementCurrent eCurrent hCurrent TotalCurrent
    Charge ]
}

Data {
      0.00000000000000E+00
      0.00000000000000E+00   0.00000000000000E+00   0.00000000000000E+00   0.00000000000000E+00   1.88543776138092E-04
      1.51381738355256E-16   1.88543776138244E-04   1.03594140000000E-16  -1.00000000000000E+01  -1.00000000000000E+01
      0.00000000000000E+00   0.00000000000000E+00  -1.88543776138092E-04  -1.51381738355256E-16  -1.88543776138244E-04
     -1.03594140000000E-16
      1.00000000000000E-03
      0.00000000000000E+00   0.00000000000000E+00   0.00000000000000E+00   0.00000000000000E+00   1.88166688585816E-04
      1.51078974878545E-16   1.88166688585967E-04   1.03386951720000E-16  -9.98000000000000E+00  -9.98000000000000E+00
      0.00000000000000E+00   0.00000000000000E+00  -1.88166688585816E-04  -1.51078974878545E-16  -1.88166688585967E-04
     -1.03386951720000E-16
      2.86666666666667E-03
      0.00000000000000E+00   0.00000000000000E+00   0.00000000000000E+00   0.00000000000000E+00   1.87462791821567E-04
      1.50513816388686E-16   1.87462791821718E-04   1.03000200264000E-16  -9.94266666666667E+00  -9.94266666666667E+00
      0.00000000000000E+00   0.00000000000000E+00  -1.87462791821567E-04  -1.50513816388686E-16  -1.87462791821718E-04
     -1.03000200264000E-16
      6.35111111111111E-03
      0.00000000000000E+00   0.00000000000000E+00   0.00000000000000E+00   0.00000000000000E+00   1.86148851194969E-04
      1.49458853874281E-16   1.86148851195119E-04   1.02278264212800E-16  -9.87297777777778E+00  -9.87297777777778E+00
      0.00000000000000E+00   0.00000000000000E+00  -1.86148851194969E-04  -1.49458853874281E-16  -1.86148851195119E-04
     -1.02278264212800E-16
      1.28554074074074E-02
      0.00000000000000E+00   0.00000000000000E+00   0.00000000000000E+00   0.00000000000000E+00   1.83696162025320E-04
      1.47489590514059E-16   1.83696162025467E-04   1.00930650250560E-16  -9.74289185185185E+00  -9.74289185185185E+00
      0.00000000000000E+00   0.00000000000000E+00  -1.83696162025320E-04  -1.47489590514059E-16  -1.83696162025467E-04
     -1.00930650250560E-16
      2.49967604938272E-02
      0.00000000000000E+00   0.00000000000000E+00   0.00000000000000E+00   0.00000000000000E+00   1.79117808908641E-04
      1.43813632241645E-16   1.79117808908785E-04   9.84151041877121E-17  -9.50006479012346E+00  -9.50006479012346E+00
      0.00000000000000E+00   0.00000000000000E+00  -1.79117808908641E-04  -1.43813632241645E-16  -1.79117808908785E-04
     -9.84151041877121E-17
      4.76606195884774E-02
      0.00000000000000E+00   0.00000000000000E+00   0.00000000000000E+00   0.00000000000000E+00   1.70571549757507E-04
      1.36951843466471E-16   1.70571549757644E-04   9.37194182037290E-17  -9.04678760823045E+00  -9.04678760823045E+00
      0.00000000000000E+00   0.00000000000000E+00  -1.70571549757507E-04  -1.36951843466471E-16  -1.70571549757644E-04
     -9.37194182037291E-17
      8.99664898984911E-02
      0.00000000000000E+00   0.00000000000000E+00   0.00000000000000E+00   0.00000000000000E+00   1.54618532675390E-04
      1.24143171086147E-16   1.54618532675514E-04   8.49541377002943E-17  -8.20067020203018E+00  -8.20067020203018E+00
      0.00000000000000E+00   0.00000000000000E+00  -1.54618532675390E-04  -1.24143171086147E-16  -1.54618532675514E-04
     -8.49541377002942E-17
      1.68937447810517E-01
      0.00000000000000E+00   0.00000000000000E+00   0.00000000000000E+00   0.00000000000000E+00   1.24839567455439E-04
      1.00233649309543E-16   1.24839567455539E-04   6.85922807605492E-17  -6.62125104378967E+00  -6.62125104378967E+00
      0.00000000000000E+00   0.00000000000000E+00  -1.24839567455439E-04  -1.00233649309543E-16  -1.24839567455539E-04
     -6.85922807605493E-17
      2.68937447810517E-01
      0.00000000000000E+00   0.00000000000000E+00   0.00000000000000E+00   0.00000000000000E+00   8.71308122278205E-05
      6.99573016384919E-17   8.71308122278904E-05   4.78734527605493E-17  -4.62125104378966E+00  -4.62125104378966E+00
      0.00000000000000E+00   0.00000000000000E+00  -8.71308122278205E-05  -6.99573016384919E-17  -8.71308122278904E-05
     -4.78734527605494E-17
      3.68937447810517E-01
      0.00000000000000E+00   0.00000000000000E+00   0.00000000000000E+00   0.00000000000000E+00   4.94220570002020E-05
      3.96809539674406E-17   4.94220570002416E-05   2.71546247605493E-17  -2.62125104378967E+00  -2.62125104378967E+00
      0.00000000000000E+00   0.00000000000000E+00  -4.94220570002020E-05  -3.96809539674406E-17  -4.94220570002416E-05
     -2.71546247605493E-17
      4.68937447810517E-01
      0.00000000000000E+00   0.00000000000000E+00   0.00000000000000E+00   0.00000000000000E+00   1.17133017725835E-05
      9.40460629638958E-18   1.17133017725929E-05   6.43579676054928E-18  -6.21251043789666E-01  -6.21251043789666E-01
      0.00000000000000E+00   0.00000000000000E+00  -1.17133017725835E-05  -9.40460629638958E-18  -1.17133017725929E-05
     -6.43579676054927E-18
      5.68937447810517E-01
      0.00000000000000E+00   0.00000000000000E+00   0.00000000000000E+00   0.00000000000000E+00  -2.59954534550349E-05
     -2.08717413746613E-17  -2.59954534550558E-05  -1.42830312394507E-17   1.37874895621033E+00   1.37874895621033E+00
      0.00000000000000E+00   0.00000000000000E+00   2.59954534550349E-05   2.08717413746613E-17   2.59954534550558E-05
      1.42830312394507E-17
      6.68937447810517E-01
      0.00000000000000E+00   0.00000000000000E+00   0.00000000000000E+00   0.00000000000000E+00  -6.37042086826533E-05
     -5.11480890457126E-17  -6.37042086827045E-05  -3.50018592394507E-17   3.37874895621033E+00   3.37874895621033E+00
      0.00000000000000E+00   0.00000000000000E+00   6.37042086826533E-05   5.11480890457126E-17   6.37042086827045E-05
      3.50018592394507E-17
      7.68937447810517E-01
      0.00000000000000E+00   0.00000000000000E+00   0.00000000000000E+00   0.00000000000000E+00  -1.01412963910272E-04
     -8.14244367167640E-17  -1.01412963910353E-04  -5.57206872394508E-17   5.37874895621033E+00   5.37874895621033E+00
      0.00000000000000E+00   0.00000000000000E+00   1.01412963910272E-04   8.14244367167640E-17   1.01412963910353E-04
      5.57206872394507E-17
      8.68937447810517E-01
      0.00000000000000E+00   0.00000000000000E+00   0.00000000000000E+00   0.00000000000000E+00  -1.39121719137890E-04
     -1.11700784387813E-16  -1.39121719138002E-04  -7.64395152394508E-17   7.37874895621033E+00   7.37874895621033E+00
      0.00000000000000E+00   0.00000000000000E+00   1.39121719137890E-04   1.11700784387813E-16   1.39121719138002E-04
      7.64395152394507E-17
      9.68937447810517E-01
      0.00000000000000E+00   0.00000000000000E+00   0.00000000000000E+00   0.00000000000000E+00  -1.76830474365509E-04
     -1.41977132058863E-16  -1.76830474365651E-04  -9.71583432394507E-17   9.37874895621033E+00   9.37874895621033E+00
      0.00000000000000E+00   0.00000000000000E+00   1.76830474365509E-04   1.41977132058863E-16   1.76830474365651E-04
      9.71583432394509E-17
      1.00000000000000E+00
      0.00000000000000E+00   0.00000000000000E+00   0.00000000000000E+00   0.00000000000000E+00  -1.88543776138092E-04
     -1.51381738355253E-16  -1.88543776138244E-04  -1.03594140000000E-16   1.00000000000000E+01   1.00000000000000E+01
      0.00000000000000E+00   0.00000000000000E+00   1.88543776138092E-04   1.51381738355253E-16   1.88543776138244E-04
      1.03594140000000E-16
}
