DF-ISE text

Info {
  version   = 1.0
  type      = xyplot
  datasets  = [
    "time"
    "Cathode OuterVoltage" "Cathode InnerVoltage" "Cathode QuasiFermiPotential" "Cathode DisplacementCurrent" "Cathode eCurrent"
    "Cathode hCurrent" "Cathode TotalCurrent" "Cathode Charge" "Anode OuterVoltage" "Anode InnerVoltage"
    "Anode QuasiFermiPotential" "Anode DisplacementCurrent" "Anode eCurrent" "Anode hCurrent" "Anode TotalCurrent"
    "Anode Charge" ]
  functions = [
    Time
    OuterVoltage InnerVoltage QuasiFermiPotential DisplacementCurrent eCurrent
    hCurrent TotalCurrent Charge OuterVoltage InnerVoltage
    QuasiFermiPotential DisplacementCurrent eCurrent hCurrent TotalCurrent
    Charge ]
}

Data {
      0.00000000000000E+00
      0.00000000000000E+00   0.00000000000000E+00   0.00000000000000E+00   0.00000000000000E+00  -3.90448828133279E-35
      3.90448828133279E-35   0.00000000000000E+00   1.77273875393690E-47   0.00000000000000E+00   0.00000000000000E+00
      0.00000000000000E+00   0.00000000000000E+00  -4.15694900190912E-35   4.15694900190912E-35   0.00000000000000E+00
     -3.16944201461446E-47
      0.00000000000000E+00
      0.00000000000000E+00   0.00000000000000E+00   0.00000000000000E+00   0.00000000000000E+00  -4.52546021500844E-35
      4.52546021500844E-35   0.00000000000000E+00   1.77273875393690E-47   0.00000000000000E+00   0.00000000000000E+00
      0.00000000000000E+00   0.00000000000000E+00  -4.81864040664547E-35   4.81864040664547E-35   0.00000000000000E+00
     -3.16944201461446E-47
      0.00000000000000E+00
      0.00000000000000E+00   0.00000000000000E+00   0.00000000000000E+00   0.00000000000000E+00  -4.52546021500844E-35
      4.52546021500844E-35   0.00000000000000E+00   1.77273875393690E-47   0.00000000000000E+00   0.00000000000000E+00
      0.00000000000000E+00   0.00000000000000E+00  -4.81864040664547E-35   4.81864040664547E-35   0.00000000000000E+00
     -3.16944201461446E-47
      0.00000000000000E+00
      0.00000000000000E+00   0.00000000000000E+00   0.00000000000000E+00   0.00000000000000E+00  -4.53958478153263E-35
      4.53958478153263E-35   0.00000000000000E+00   1.77273875393690E-47   0.00000000000000E+00   0.00000000000000E+00
      0.00000000000000E+00   0.00000000000000E+00  -4.83276497316965E-35   4.83276497316965E-35   0.00000000000000E+00
     -3.16944201461446E-47
      0.00000000000000E+00
      0.00000000000000E+00   0.00000000000000E+00   0.00000000000000E+00   0.00000000000000E+00  -4.53958478153263E-35
      4.53958478153263E-35   0.00000000000000E+00   1.77273875393690E-47   0.00000000000000E+00   0.00000000000000E+00
      0.00000000000000E+00   0.00000000000000E+00  -4.83276497316965E-35   4.83276497316965E-35   0.00000000000000E+00
     -3.16944201461446E-47
      1.00000000000000E-03
      0.00000000000000E+00   0.00000000000000E+00   0.00000000000000E+00   0.00000000000000E+00   1.88543776138095E-07
      1.51381738355256E-19   1.88543776138247E-07   1.03594140000001E-19  -1.00000000000000E-02  -1.00000000000000E-02
      0.00000000000000E+00   0.00000000000000E+00  -1.88543776138095E-07  -1.51381738355256E-19  -1.88543776138247E-07
     -1.03594140000001E-19
      2.86666666666667E-03
      0.00000000000000E+00   0.00000000000000E+00   0.00000000000000E+00   0.00000000000000E+00   5.40492158262549E-07
      4.33960983285074E-19   5.40492158262983E-07   2.96969868000009E-19  -2.86666666666667E-02  -2.86666666666667E-02
      0.00000000000000E+00   0.00000000000000E+00  -5.40492158262549E-07  -4.33960983285074E-19  -5.40492158262983E-07
     -2.96969868000009E-19
      6.35111111111111E-03
      0.00000000000000E+00   0.00000000000000E+00   0.00000000000000E+00   0.00000000000000E+00   1.19746247156149E-06
      9.61442240487373E-19   1.19746247156245E-06   6.57937893600004E-19  -6.35111111111111E-02  -6.35111111111111E-02
      0.00000000000000E+00   0.00000000000000E+00  -1.19746247156149E-06  -9.61442240487373E-19  -1.19746247156245E-06
     -6.57937893600004E-19
      1.28554074074074E-02
      0.00000000000000E+00   0.00000000000000E+00   0.00000000000000E+00   0.00000000000000E+00   2.42380705638620E-06
      1.94607392059835E-18   2.42380705638815E-06   1.33174487472001E-18  -1.28554074074074E-01  -1.28554074074074E-01
      0.00000000000000E+00   0.00000000000000E+00  -2.42380705638620E-06  -1.94607392059835E-18  -2.42380705638815E-06
     -1.33174487472001E-18
      2.49967604938272E-02
      0.00000000000000E+00   0.00000000000000E+00   0.00000000000000E+00   0.00000000000000E+00   4.71298361472565E-06
      3.78405305680549E-18   4.71298361472943E-06   2.58951790614400E-18  -2.49967604938272E-01  -2.49967604938272E-01
      0.00000000000000E+00   0.00000000000000E+00  -4.71298361472565E-06  -3.78405305680549E-18  -4.71298361472943E-06
     -2.58951790614400E-18
      4.76606195884774E-02
      0.00000000000000E+00   0.00000000000000E+00   0.00000000000000E+00   0.00000000000000E+00   8.98611319029264E-06
      7.21494744439218E-18   8.98611319029986E-06   4.93736089813547E-18  -4.76606195884774E-01  -4.76606195884774E-01
      0.00000000000000E+00   0.00000000000000E+00  -8.98611319029264E-06  -7.21494744439218E-18  -8.98611319029986E-06
     -4.93736089813547E-18
      8.99664898984911E-02
      0.00000000000000E+00   0.00000000000000E+00   0.00000000000000E+00   0.00000000000000E+00   1.69626217313510E-05
      1.36192836345540E-17   1.69626217313646E-05   9.32000114985287E-18  -8.99664898984911E-01  -8.99664898984911E-01
      0.00000000000000E+00   0.00000000000000E+00  -1.69626217313510E-05  -1.36192836345540E-17  -1.69626217313646E-05
     -9.32000114985288E-18
      1.68937447810517E-01
      0.00000000000000E+00   0.00000000000000E+00   0.00000000000000E+00   0.00000000000000E+00   3.18521043413267E-05
      2.55740445228561E-17   3.18521043413522E-05   1.75009296197254E-17  -1.68937447810517E+00  -1.68937447810517E+00
      0.00000000000000E+00   0.00000000000000E+00  -3.18521043413267E-05  -2.55740445228561E-17  -3.18521043413522E-05
     -1.75009296197254E-17
      2.68937447810517E-01
      0.00000000000000E+00   0.00000000000000E+00   0.00000000000000E+00   0.00000000000000E+00   5.07064819551359E-05
      4.07122183583817E-17   5.07064819551766E-05   2.78603436197254E-17  -2.68937447810517E+00  -2.68937447810517E+00
      0.00000000000000E+00   0.00000000000000E+00  -5.07064819551359E-05  -4.07122183583817E-17  -5.07064819551766E-05
     -2.78603436197254E-17
      3.68937447810517E-01
      0.00000000000000E+00   0.00000000000000E+00   0.00000000000000E+00   0.00000000000000E+00   6.95608595689452E-05
      5.58503921939073E-17   6.95608595690010E-05   3.82197576197254E-17  -3.68937447810517E+00  -3.68937447810517E+00
      0.00000000000000E+00   0.00000000000000E+00  -6.95608595689452E-05  -5.58503921939073E-17  -6.95608595690010E-05
     -3.82197576197254E-17
      4.68937447810517E-01
      0.00000000000000E+00   0.00000000000000E+00   0.00000000000000E+00   0.00000000000000E+00   8.84152371827543E-05
      7.09885660294328E-17   8.84152371828253E-05   4.85791716197253E-17  -4.68937447810517E+00  -4.68937447810517E+00
      0.00000000000000E+00   0.00000000000000E+00  -8.84152371827543E-05  -7.09885660294328E-17  -8.84152371828253E-05
     -4.85791716197254E-17
      5.68937447810517E-01
      0.00000000000000E+00   0.00000000000000E+00   0.00000000000000E+00   0.00000000000000E+00   1.07269614796563E-04
      8.61267398649584E-17   1.07269614796650E-04   5.89385856197253E-17  -5.68937447810517E+00  -5.68937447810517E+00
      0.00000000000000E+00   0.00000000000000E+00  -1.07269614796563E-04  -8.61267398649584E-17  -1.07269614796650E-04
     -5.89385856197253E-17
      6.68937447810517E-01
      0.00000000000000E+00   0.00000000000000E+00   0.00000000000000E+00   0.00000000000000E+00   1.26123992410373E-04
      1.01264913700484E-16   1.26123992410474E-04   6.92979996197254E-17  -6.68937447810517E+00  -6.68937447810517E+00
      0.00000000000000E+00   0.00000000000000E+00  -1.26123992410373E-04  -1.01264913700484E-16  -1.26123992410474E-04
     -6.92979996197254E-17
      7.68937447810517E-01
      0.00000000000000E+00   0.00000000000000E+00   0.00000000000000E+00   0.00000000000000E+00   1.44978370024182E-04
      1.16403087536010E-16   1.44978370024298E-04   7.96574136197254E-17  -7.68937447810517E+00  -7.68937447810517E+00
      0.00000000000000E+00   0.00000000000000E+00  -1.44978370024182E-04  -1.16403087536010E-16  -1.44978370024298E-04
     -7.96574136197254E-17
      8.68937447810517E-01
      0.00000000000000E+00   0.00000000000000E+00   0.00000000000000E+00   0.00000000000000E+00   1.63832747637991E-04
      1.31541261371535E-16   1.63832747638123E-04   9.00168276197254E-17  -8.68937447810517E+00  -8.68937447810517E+00
      0.00000000000000E+00   0.00000000000000E+00  -1.63832747637991E-04  -1.31541261371535E-16  -1.63832747638123E-04
     -9.00168276197255E-17
      9.68937447810517E-01
      0.00000000000000E+00   0.00000000000000E+00   0.00000000000000E+00   0.00000000000000E+00   1.82687125251800E-04
      1.46679435207061E-16   1.82687125251947E-04   1.00376241619725E-16  -9.68937447810517E+00  -9.68937447810517E+00
      0.00000000000000E+00   0.00000000000000E+00  -1.82687125251800E-04  -1.46679435207061E-16  -1.82687125251947E-04
     -1.00376241619725E-16
      1.00000000000000E+00
      0.00000000000000E+00   0.00000000000000E+00   0.00000000000000E+00   0.00000000000000E+00   1.88543776138092E-04
      1.51381738355256E-16   1.88543776138244E-04   1.03594140000000E-16  -1.00000000000000E+01  -1.00000000000000E+01
      0.00000000000000E+00   0.00000000000000E+00  -1.88543776138092E-04  -1.51381738355256E-16  -1.88543776138244E-04
     -1.03594140000000E-16
}
